384
# CELL(abcABC):   15.64568    14.70715    18.07304    90.00000    90.00000    90.00000  Step:           0  Bead:       5 positions{atomic_unit}  cell{atomic_unit}
       O  2.60181e+00  3.32398e+00  6.36614e+00
       H  2.52198e+00  5.13049e+00  6.35931e+00
       H  8.72198e-01  2.79314e+00  6.36955e+00
       O  9.82184e+00  8.45169e+00  2.09017e+00
       H  1.07295e+01  9.08814e+00  3.51777e+00
       H  1.07206e+01  9.09092e+00  6.55739e-01
       O  1.24443e+01  1.01804e+01  6.25343e+00
       H  1.15781e+01  9.64677e+00  7.74592e+00
       H  1.23882e+01  1.19869e+01  6.31491e+00
       O  9.96967e+00  8.48226e+00  1.05157e+01
       H  8.28441e+00  9.13817e+00  1.05806e+01
       H  1.07650e+01  9.12149e+00  1.20116e+01
       O  4.89022e+00  1.58139e+00  1.07172e+01
       H  4.10968e+00  2.22062e+00  9.21792e+00
       H  6.58731e+00  2.20394e+00  1.06489e+01
       O  5.07649e+00  1.02665e+01  1.05089e+01
       H  5.01736e+00  1.20731e+01  1.05704e+01
       H  4.20725e+00  9.73293e+00  1.20048e+01
       O  9.82184e+00  3.23782e+00  2.02186e+00
       H  9.87802e+00  5.04433e+00  2.08334e+00
       H  1.06822e+01  2.70699e+00  3.52460e+00
       O  9.82184e+00  3.27117e+00  1.05362e+01
       H  1.06822e+01  2.74034e+00  1.20355e+01
       H  9.87802e+00  5.07769e+00  1.05977e+01
       O  2.50129e+00  8.71294e+00  1.47712e+01
       H  2.51607e+00  6.90643e+00  1.48327e+01
       H  3.36462e+00  9.22710e+00  1.62739e+01
       O  2.44807e+00  8.53785e+00  6.34564e+00
       H  3.35870e+00  9.16318e+00  4.91463e+00
       H  3.35870e+00  9.17430e+00  7.77324e+00
       O  4.92275e+00  1.02332e+01  2.07992e+00
       H  4.99666e+00  1.20397e+01  2.09358e+00
       H  6.65532e+00  9.70791e+00  2.08334e+00
       O  4.89022e+00  1.54526e+00  2.03211e+00
       H  4.10968e+00  2.19838e+00  3.52460e+00
       H  6.58731e+00  2.16781e+00  2.09358e+00
       O  1.23616e+01  1.63698e+00  6.28758e+00
       H  1.15012e+01  2.15948e+00  7.78690e+00
       H  1.56552e+01  2.79314e+00  6.36955e+00
       O  1.23616e+01  1.67033e+00  1.47985e+01
       H  1.15071e+01  2.18171e+00  1.63081e+01
       H  1.56493e+01  2.84317e+00  1.49078e+01
       O  1.22965e+01  1.02137e+01  1.48498e+01
       H  1.40350e+01  9.71347e+00  1.48532e+01
       H  1.23438e+01  1.20230e+01  1.48634e+01
       O  2.55155e+00  3.50185e+00  1.49659e+01
       H  3.34096e+00  2.85151e+00  1.34734e+01
       H  8.66285e-01  2.84317e+00  1.49078e+01
       O  1.73848e+01  3.32398e+00  6.36614e+00
       H  1.73050e+01  5.13049e+00  6.35931e+00
       H  1.89252e+01  2.19838e+00  3.54509e+00
       O  2.46551e+01  8.59343e+00  2.17555e+00
       H  2.46817e+01  6.78692e+00  2.10725e+00
       H  2.55155e+01  9.11593e+00  6.72816e-01
       O  2.71268e+01  1.03193e+01  6.42761e+00
       H  2.88269e+01  9.70791e+00  6.34906e+00
       H  2.63463e+01  9.68012e+00  4.92488e+00
       O  2.47527e+01  8.48504e+00  1.06899e+01
       H  2.55451e+01  9.11037e+00  9.19060e+00
       H  2.30674e+01  9.13817e+00  1.06182e+01
       O  1.96732e+01  1.58139e+00  1.07172e+01
       H  1.88927e+01  2.22062e+00  9.21792e+00
       H  2.13703e+01  2.20394e+00  1.06489e+01
       O  1.98595e+01  1.02665e+01  1.06797e+01
       H  1.89873e+01  9.73848e+00  9.18718e+00
       H  1.97915e+01  1.20731e+01  1.06284e+01
       O  2.47054e+01  3.37679e+00  2.02186e+00
       H  2.30083e+01  2.75423e+00  2.09358e+00
       H  2.54859e+01  2.73756e+00  3.52460e+00
       O  2.46049e+01  3.27117e+00  1.05362e+01
       H  2.54652e+01  2.74034e+00  1.20355e+01
       H  2.46610e+01  5.07769e+00  1.05977e+01
       O  1.72843e+01  8.71294e+00  1.49454e+01
       H  1.73050e+01  6.90643e+00  1.48839e+01
       H  1.81536e+01  9.22710e+00  1.34461e+01
       O  1.73848e+01  8.54063e+00  6.43444e+00
       H  1.56848e+01  9.15206e+00  6.35247e+00
       H  1.81654e+01  9.16874e+00  4.92829e+00
       O  1.97560e+01  1.03749e+01  2.16872e+00
       H  1.89696e+01  9.76072e+00  6.59155e-01
       H  2.14413e+01  9.71903e+00  2.10042e+00
       O  1.98240e+01  1.54248e+00  2.11749e+00
       H  1.89371e+01  2.20116e+00  6.86477e-01
       H  2.62842e+01  2.15948e+00  7.78690e+00
       O  2.71446e+01  1.63698e+00  6.28758e+00
       H  2.62901e+01  2.18171e+00  1.63081e+01
       H  2.63463e+01  9.71347e+00  1.34392e+01
       O  2.71446e+01  1.67033e+00  1.47985e+01
       H  2.46936e+01  5.04433e+00  1.91804e+01
       H  2.30201e+01  2.72366e+00  1.91872e+01
       O  2.71268e+01  1.03555e+01  1.49386e+01
       H  2.88269e+01  9.74126e+00  1.48600e+01
       H  2.71328e+01  1.37601e+01  1.48907e+01
       O  1.73346e+01  3.50185e+00  1.49659e+01
       H  1.81240e+01  2.85151e+00  1.34734e+01
       H  1.89371e+01  2.20116e+00  1.77630e+01
       O  2.45103e+00  1.72202e+01  6.28075e+00
       H  3.31140e+00  1.66894e+01  7.78007e+00
       H  2.50720e+00  1.90267e+01  6.33881e+00
       O  1.00229e+01  2.24869e+01  2.09017e+00
       H  9.92828e+00  2.06804e+01  2.09700e+00
       H  8.29623e+00  2.30316e+01  2.08675e+00
       O  1.23438e+01  2.42156e+01  6.42761e+00
       H  1.40439e+01  2.36042e+01  6.34906e+00
       H  1.15633e+01  2.35764e+01  4.92488e+00
       O  9.81888e+00  2.23813e+01  1.06045e+01
       H  1.07295e+01  2.30177e+01  1.20321e+01
       H  1.07295e+01  2.30066e+01  9.17010e+00
       O  4.89022e+00  1.54776e+01  1.05431e+01
       H  6.58731e+00  1.61002e+01  1.06079e+01
       H  4.10968e+00  1.61308e+01  1.20390e+01
       O  4.92275e+00  2.41628e+01  1.05943e+01
       H  4.99666e+00  2.59693e+01  1.06079e+01
       H  6.65532e+00  2.36403e+01  1.05977e+01
       O  9.92236e+00  1.72730e+01  2.19604e+00
       H  8.22823e+00  1.66505e+01  2.12774e+00
       H  1.06970e+01  1.66449e+01  6.89892e-01
       O  9.82184e+00  1.71674e+01  1.07104e+01
       H  1.06822e+01  1.66255e+01  9.21450e+00
       H  9.87802e+00  1.89739e+01  1.06353e+01
       O  2.50129e+00  2.26092e+01  1.49454e+01
       H  2.52198e+00  2.08027e+01  1.48839e+01
       H  3.37053e+00  2.31233e+01  1.34461e+01
       O  2.60181e+00  2.24341e+01  6.25685e+00
       H  9.01764e-01  2.30483e+01  6.33540e+00
       H  3.38236e+00  2.30761e+01  7.75958e+00
       O  5.07649e+00  2.41294e+01  1.99454e+00
       H  5.01736e+00  2.59359e+01  2.05602e+00
       H  4.20725e+00  2.35958e+01  3.49045e+00
       O  5.04101e+00  1.54387e+01  2.11749e+00
       H  4.15403e+00  1.60974e+01  6.86477e-01
       H  4.14220e+00  1.60946e+01  3.54509e+00
       O  1.22640e+01  1.53887e+01  6.46176e+00
       H  1.39493e+01  1.60446e+01  6.40029e+00
       H  1.14746e+01  1.60251e+01  4.96244e+00
       O  1.22640e+01  1.54248e+01  1.49727e+01
       H  1.14746e+01  1.60613e+01  1.34768e+01
       H  1.39493e+01  1.60807e+01  1.49112e+01
       O  1.23438e+01  2.42517e+01  1.47644e+01
       H  1.15662e+01  2.36097e+01  1.62637e+01
       H  1.40468e+01  2.36431e+01  1.48361e+01
       O  2.55155e+00  1.73981e+01  1.47917e+01
       H  8.66285e-01  1.67450e+01  1.48463e+01
       H  3.33801e+00  1.67477e+01  1.62876e+01
       O  1.71838e+01  1.73620e+01  6.36614e+00
       H  1.80826e+01  1.67088e+01  4.93854e+00
       H  1.80826e+01  1.67200e+01  7.80057e+00
       O  2.48059e+01  2.24869e+01  2.09017e+00
       H  2.47113e+01  2.06804e+01  2.09700e+00
       H  2.30793e+01  2.30316e+01  2.08675e+00
       O  2.72776e+01  2.42184e+01  6.33881e+00
       H  2.63670e+01  2.35930e+01  7.76983e+00
       H  2.63670e+01  2.35819e+01  4.91121e+00
       O  2.47527e+01  2.23785e+01  1.05157e+01
       H  2.30674e+01  2.30344e+01  1.05806e+01
       H  2.55480e+01  2.30177e+01  1.20116e+01
       O  1.96732e+01  1.54776e+01  1.05431e+01
       H  2.13703e+01  1.61002e+01  1.06079e+01
       H  1.88927e+01  1.61308e+01  1.20390e+01
       O  1.98595e+01  2.41628e+01  1.06797e+01
       H  1.89873e+01  2.36347e+01  9.18718e+00
       H  1.97915e+01  2.59693e+01  1.06284e+01
       O  2.45546e+01  1.72758e+01  2.11066e+00
       H  2.54564e+01  1.66421e+01  6.76231e-01
       H  2.54593e+01  1.66282e+01  3.53826e+00
       O  2.46049e+01  1.71674e+01  1.07104e+01
       H  2.54652e+01  1.66255e+01  9.21450e+00
       H  2.46610e+01  1.89739e+01  1.06353e+01
       O  1.72311e+01  2.24702e+01  1.48566e+01
       H  1.81506e+01  2.30983e+01  1.34324e+01
       H  1.81476e+01  2.30844e+01  1.62910e+01
       O  1.72843e+01  2.25758e+01  6.43103e+00
       H  1.73050e+01  2.07693e+01  6.37297e+00
       H  1.81536e+01  2.30900e+01  4.93171e+00
       O  1.98595e+01  2.41266e+01  2.16872e+00
       H  1.89932e+01  2.36125e+01  6.65985e-01
       H  1.97974e+01  2.59359e+01  2.12774e+00
       O  1.96230e+01  1.55832e+01  2.11749e+00
       H  1.97058e+01  1.37767e+01  2.10383e+00
       H  2.13526e+01  1.61169e+01  2.11408e+00
       O  2.69938e+01  1.55304e+01  6.37638e+00
       H  2.70973e+01  1.37239e+01  6.36272e+00
       H  2.87175e+01  1.60835e+01  6.37297e+00
       O  2.71446e+01  1.55666e+01  1.49727e+01
       H  2.62872e+01  1.60946e+01  1.34734e+01
       H  2.54564e+01  1.66421e+01  1.77528e+01
       O  2.71268e+01  2.42517e+01  1.47644e+01
       H  2.63493e+01  2.36097e+01  1.62637e+01
       H  2.88299e+01  2.36431e+01  1.48361e+01
       O  1.72340e+01  1.72536e+01  1.47917e+01
       H  1.72932e+01  1.90601e+01  1.48600e+01
       H  1.80855e+01  1.67144e+01  1.62944e+01
       O  2.55155e+00  3.46572e+00  2.35281e+01
       H  3.34096e+00  2.81816e+00  2.20356e+01
       H  8.66285e-01  2.80982e+00  2.34734e+01
       O  9.82184e+00  8.45169e+00  1.91667e+01
       H  1.07295e+01  9.08814e+00  2.05943e+01
       H  1.07206e+01  9.09092e+00  1.77323e+01
       O  1.24443e+01  1.01804e+01  2.33300e+01
       H  1.15781e+01  9.64677e+00  2.48225e+01
       H  1.23882e+01  1.19869e+01  2.33915e+01
       O  1.00229e+01  8.62678e+00  2.76777e+01
       H  9.92828e+00  6.82027e+00  2.76879e+01
       H  8.29623e+00  9.17152e+00  2.76777e+01
       O  5.04101e+00  1.57861e+00  2.77084e+01
       H  4.14220e+00  2.23452e+00  2.91360e+01
       H  4.14220e+00  2.22062e+00  2.62740e+01
       O  5.07649e+00  1.02665e+01  2.75855e+01
       H  5.01736e+00  1.20731e+01  2.76469e+01
       H  4.20725e+00  9.73293e+00  2.90814e+01
       O  9.97263e+00  3.23504e+00  1.91872e+01
       H  8.23710e+00  2.72366e+00  1.91872e+01
       H  9.91054e+00  5.04433e+00  1.91804e+01
       O  9.92236e+00  3.41292e+00  2.76128e+01
       H  1.07029e+01  2.77091e+00  2.91121e+01
       H  8.22527e+00  2.79036e+00  2.76845e+01
       O  2.50129e+00  8.71294e+00  3.18478e+01
       H  2.51607e+00  6.90643e+00  3.19092e+01
       H  3.36462e+00  9.22710e+00  3.33505e+01
       O  2.50129e+00  8.67959e+00  2.33368e+01
       H  2.52198e+00  6.87308e+00  2.34085e+01
       H  3.37053e+00  9.20487e+00  2.48327e+01
       O  4.97301e+00  1.03749e+01  1.90711e+01
       H  4.18064e+00  9.74960e+00  2.05704e+01
       H  6.65827e+00  9.71903e+00  1.91428e+01
       O  4.98779e+00  1.68700e+00  1.92828e+01
       H  4.13925e+00  2.22340e+00  1.77767e+01
       H  1.15160e+01  2.13446e+00  2.20185e+01
       O  1.24118e+01  1.49246e+00  2.34495e+01
       H  1.15160e+01  2.14558e+00  2.48805e+01
       H  1.56552e+01  2.79314e+00  2.34461e+01
       O  1.23616e+01  1.67033e+00  3.18751e+01
       H  1.15071e+01  2.18171e+00  3.33846e+01
       H  1.56493e+01  2.84317e+00  3.19844e+01
       O  1.23438e+01  1.03555e+01  3.20151e+01
       H  1.15633e+01  9.71347e+00  3.05158e+01
       H  1.40439e+01  9.74126e+00  3.19366e+01
       O  2.55155e+00  3.50185e+00  3.18682e+01
       H  8.66285e-01  2.84873e+00  3.19229e+01
       H  3.33801e+00  2.85151e+00  3.33642e+01
       O  1.73848e+01  3.32398e+00  2.34427e+01
       H  1.73050e+01  5.13049e+00  2.34359e+01
       H  1.89252e+01  2.19838e+00  2.06216e+01
       O  2.46049e+01  8.45169e+00  1.91667e+01
       H  2.55125e+01  9.08814e+00  2.05943e+01
       H  2.55037e+01  9.09092e+00  1.77323e+01
       O  2.71268e+01  1.03193e+01  2.33266e+01
       H  2.88269e+01  9.70791e+00  2.34085e+01
       H  2.63463e+01  9.69124e+00  2.48327e+01
       O  2.46551e+01  8.62678e+00  2.75923e+01
       H  2.55244e+01  9.15206e+00  2.90882e+01
       H  2.46758e+01  6.82027e+00  2.76674e+01
       O  1.97708e+01  1.72313e+00  2.77972e+01
       H  1.89134e+01  2.25119e+00  2.62945e+01
       H  1.81240e+01  2.85151e+00  3.05499e+01
       O  1.97560e+01  1.04083e+01  2.77596e+01
       H  1.89637e+01  9.77183e+00  2.62637e+01
       H  2.14413e+01  9.75516e+00  2.76947e+01
       O  2.47556e+01  3.23504e+00  1.91872e+01
       H  2.62990e+01  2.13446e+00  2.20185e+01
       H  2.62990e+01  2.14558e+00  2.48805e+01
       O  2.47054e+01  3.41292e+00  2.76128e+01
       H  2.54859e+01  2.77091e+00  2.91121e+01
       H  2.30083e+01  2.79036e+00  2.76845e+01
       O  1.72843e+01  8.71294e+00  3.20219e+01
       H  1.73050e+01  6.90643e+00  3.19605e+01
       H  1.81536e+01  9.22710e+00  3.05226e+01
       O  1.73848e+01  8.54063e+00  2.35110e+01
       H  1.56848e+01  9.15206e+00  2.34290e+01
       H  1.81654e+01  9.16874e+00  2.20048e+01
       O  1.97560e+01  1.03749e+01  1.92453e+01
       H  1.89696e+01  9.76072e+00  1.77357e+01
       H  2.14413e+01  9.71903e+00  1.91770e+01
       O  1.98240e+01  1.54248e+00  1.91940e+01
       H  1.97058e+01  1.37767e+01  1.91804e+01
       H  2.13526e+01  1.61169e+01  1.91906e+01
       O  2.71948e+01  1.49246e+00  2.34495e+01
       H  2.62901e+01  2.18171e+00  3.33846e+01
       H  2.88180e+01  9.71347e+00  3.19297e+01
       O  2.71446e+01  1.67033e+00  3.18751e+01
       H  2.71268e+01  1.20230e+01  3.19400e+01
       H  2.62576e+01  1.60613e+01  3.05534e+01
       O  2.70795e+01  1.02137e+01  3.19263e+01
       H  2.87323e+01  1.60807e+01  3.19878e+01
       H  2.54652e+01  1.66255e+01  2.62910e+01
       O  1.73346e+01  3.50185e+00  3.20424e+01
       H  1.23172e+01  1.37601e+01  3.19502e+01
       H  1.97058e+01  1.38129e+01  2.76947e+01
       O  2.45103e+00  1.72202e+01  2.35315e+01
       H  3.31140e+00  1.66783e+01  2.20356e+01
       H  2.50720e+00  1.90267e+01  2.34563e+01
       O  9.96967e+00  2.23452e+01  1.90779e+01
       H  1.07620e+01  2.29844e+01  2.05738e+01
       H  8.28441e+00  2.30011e+01  1.91428e+01
       O  1.24443e+01  2.40766e+01  2.33300e+01
       H  1.15781e+01  2.35430e+01  2.48225e+01
       H  1.23882e+01  2.58831e+01  2.33915e+01
       O  1.00229e+01  2.25230e+01  2.76777e+01
       H  9.92828e+00  2.07165e+01  2.76879e+01
       H  8.29623e+00  2.30678e+01  2.76777e+01
       O  4.89022e+00  1.54776e+01  2.77938e+01
       H  4.10968e+00  1.61169e+01  2.62945e+01
       H  6.58731e+00  1.61002e+01  2.77255e+01
       O  5.07649e+00  2.41628e+01  2.75855e+01
       H  5.01736e+00  2.59693e+01  2.76469e+01
       H  4.20725e+00  2.36292e+01  2.90814e+01
       O  9.82184e+00  1.71341e+01  1.92726e+01
       H  9.87210e+00  1.89406e+01  1.92111e+01
       H  1.06763e+01  1.66032e+01  1.77699e+01
       O  9.77158e+00  1.73092e+01  2.77016e+01
       H  1.06704e+01  1.66671e+01  2.91326e+01
       H  1.06704e+01  1.66560e+01  2.62706e+01
       O  2.60181e+00  2.24702e+01  3.18478e+01
       H  3.37644e+00  2.30872e+01  3.33607e+01
       H  9.01764e-01  2.30844e+01  3.19263e+01
       O  2.60181e+00  2.24341e+01  2.33334e+01
       H  9.01764e-01  2.30483e+01  2.34119e+01
       H  3.38236e+00  2.30761e+01  2.48361e+01
       O  5.12675e+00  2.42684e+01  1.91599e+01
       H  4.20725e+00  2.36403e+01  2.05841e+01
       H  4.21020e+00  2.36542e+01  1.77255e+01
       O  4.83996e+00  1.55832e+01  1.91940e+01
       H  4.92275e+00  1.37767e+01  1.91804e+01
       H  6.56958e+00  1.61169e+01  1.91906e+01
       O  1.22640e+01  1.53887e+01  2.35383e+01
       H  1.39493e+01  1.60446e+01  2.34768e+01
       H  1.14746e+01  1.60251e+01  2.20390e+01
       O  1.22108e+01  1.55638e+01  3.19639e+01
       H  1.39345e+01  1.61196e+01  3.19605e+01
       H  1.80708e+01  1.67394e+01  3.33881e+01
       O  1.24976e+01  2.42545e+01  3.19263e+01
       H  1.15869e+01  2.36180e+01  3.04987e+01
       H  1.15988e+01  2.36125e+01  3.33607e+01
       O  2.45103e+00  1.72536e+01  3.20424e+01
       H  3.31140e+00  1.67116e+01  3.05465e+01
       H  2.50720e+00  1.90601e+01  3.19673e+01
       O  1.71838e+01  1.73620e+01  2.34427e+01
       H  1.80826e+01  1.67088e+01  2.20151e+01
       H  1.80826e+01  1.67200e+01  2.48771e+01
       O  2.48059e+01  2.24869e+01  1.91667e+01
       H  2.47113e+01  2.06804e+01  1.91735e+01
       H  2.30793e+01  2.30316e+01  1.91633e+01
       O  2.72303e+01  2.40766e+01  2.35007e+01
       H  2.63581e+01  2.35458e+01  2.20083e+01
       H  2.71623e+01  2.58831e+01  2.34495e+01
       O  2.47527e+01  2.23813e+01  2.77665e+01
       H  2.55451e+01  2.30066e+01  2.62671e+01
       H  2.30674e+01  2.30344e+01  2.76947e+01
       O  1.96230e+01  1.56194e+01  2.77084e+01
       H  2.13526e+01  1.61530e+01  2.77050e+01
       H  1.80826e+01  1.67422e+01  3.05260e+01
       O  1.99068e+01  2.43045e+01  2.76708e+01
       H  1.89962e+01  2.36681e+01  2.62432e+01
       H  1.89962e+01  2.36792e+01  2.91053e+01
       O  2.45546e+01  1.72758e+01  1.91872e+01
       H  2.54593e+01  1.66282e+01  2.06148e+01
       H  2.87175e+01  1.60835e+01  2.34495e+01
       O  2.46049e+01  1.71674e+01  2.77870e+01
       H  2.46610e+01  1.89739e+01  2.77118e+01
       H  2.70973e+01  1.37239e+01  2.34393e+01
       O  1.74321e+01  2.26092e+01  3.19331e+01
       H  1.57025e+01  2.31317e+01  3.19331e+01
       H  1.73641e+01  2.08027e+01  3.19400e+01
       O  1.74321e+01  2.25758e+01  2.34222e+01
       H  1.57025e+01  2.30955e+01  2.34188e+01
       H  1.73641e+01  2.07693e+01  2.34290e+01
       O  1.98595e+01  2.41294e+01  1.90711e+01
       H  1.98004e+01  2.59359e+01  1.91326e+01
       H  1.89903e+01  2.35958e+01  2.05670e+01
       O  1.96230e+01  1.55832e+01  1.91940e+01
       H  1.23497e+01  2.76563e+01  1.48600e+01
       H  1.97619e+01  2.77091e+01  2.77118e+01
       O  2.69938e+01  1.55304e+01  2.34529e+01
       H  2.63700e+01  2.36180e+01  3.04987e+01
       H  2.63818e+01  2.36125e+01  3.33607e+01
       O  2.70470e+01  1.54248e+01  3.20493e+01
       H  2.71328e+01  2.76563e+01  3.19366e+01
       H  1.23497e+01  2.76563e+01  3.19366e+01
       O  2.72806e+01  2.42545e+01  3.19263e+01
       H  2.71328e+01  2.76563e+01  1.48600e+01
       H  2.71239e+01  2.76229e+01  6.35931e+00
       O  1.71867e+01  1.73981e+01  3.19536e+01
       H  4.97301e+00  2.76730e+01  1.91906e+01
       H  1.23409e+01  2.76229e+01  6.35931e+00
