384
# CELL(abcABC):   15.64568    14.70715    18.07304    90.00000    90.00000    90.00000  Step:           0  Bead:       2 positions{atomic_unit}  cell{atomic_unit}
       O  2.54126e+00  3.33005e+00  6.01997e+00
       H  2.61190e+00  5.21799e+00  6.03771e+00
       H  7.68692e-01  2.92003e+00  5.93250e+00
       O  1.07987e+01  9.68484e+00  1.74028e+00
       H  1.13310e+01  9.86015e+00  3.49297e+00
       H  1.06451e+01  7.83707e+00  1.50447e+00
       O  1.24091e+01  1.06712e+01  6.79246e+00
       H  1.13905e+01  9.92246e+00  8.17585e+00
       H  1.22638e+01  1.25002e+01  6.92148e+00
       O  9.76414e+00  8.63373e+00  1.06052e+01
       H  7.97413e+00  9.13677e+00  1.06817e+01
       H  1.05343e+01  9.14369e+00  1.22103e+01
       O  4.89087e+00  1.76570e+00  1.06668e+01
       H  4.17373e+00  2.27000e+00  9.05057e+00
       H  6.69359e+00  2.20120e+00  1.06051e+01
       O  4.83150e+00  1.00960e+01  1.06474e+01
       H  4.70972e+00  1.19294e+01  1.06028e+01
       H  3.90451e+00  9.53754e+00  1.21769e+01
       O  1.02027e+01  4.55242e+00  1.46912e+00
       H  8.49468e+00  3.90086e+00  1.32762e+00
       H  1.08511e+01  3.73558e+00  3.00666e+00
       O  9.90017e+00  3.23731e+00  1.05017e+01
       H  1.08182e+01  2.70387e+00  1.20369e+01
       H  9.88039e+00  5.07749e+00  1.05639e+01
       O  2.32778e+00  8.59010e+00  1.48030e+01
       H  2.25904e+00  6.74495e+00  1.48104e+01
       H  3.20085e+00  9.05717e+00  1.63577e+01
       O  2.72334e+00  8.29740e+00  6.07540e+00
       H  3.78630e+00  9.02675e+00  4.74323e+00
       H  3.43336e+00  8.89313e+00  7.66673e+00
       O  5.60066e+00  1.05534e+01  2.32599e+00
       H  5.51882e+00  1.23691e+01  2.49778e+00
       H  7.39777e+00  1.01646e+01  2.09403e+00
       O  5.39438e+00  1.99905e+00  1.65501e+00
       H  4.42260e+00  2.41777e+00  3.15155e+00
       H  5.99175e+00  3.03422e-01  2.00926e+00
       O  1.20719e+01  2.13664e+00  5.74195e+00
       H  1.12969e+01  2.38586e+00  7.39942e+00
       H  1.38560e+01  2.48367e+00  5.97895e+00
       O  1.23984e+01  1.90149e+00  1.47807e+01
       H  1.16389e+01  2.23075e+00  1.64274e+01
       H  1.42051e+01  2.18072e+00  1.49660e+01
       O  1.22647e+01  1.01733e+01  1.49879e+01
       H  1.40078e+01  9.53494e+00  1.49026e+01
       H  1.23905e+01  1.20146e+01  1.49891e+01
       O  2.48571e+00  3.26911e+00  1.47410e+01
       H  3.43257e+00  2.74314e+00  1.31892e+01
       H  9.48278e-01  2.29923e+00  1.47041e+01
       O  1.73300e+01  3.67212e+00  6.24181e+00
       H  1.71534e+01  5.48267e+00  6.54748e+00
       H  1.81400e+01  3.57853e+00  4.59394e+00
       O  2.48643e+01  8.97400e+00  2.19813e+00
       H  2.50351e+01  5.35635e+00  2.90436e+00
       H  2.57911e+01  9.03186e+00  6.42968e-01
       O  2.75411e+01  1.08318e+01  6.25223e+00
       H  2.89308e+01  9.85394e+00  6.87338e+00
       H  2.59124e+01  9.78350e+00  3.49824e+00
       O  2.43346e+01  8.91422e+00  1.02180e+01
       H  2.50571e+01  9.72768e+00  8.74273e+00
       H  2.25708e+01  9.54339e+00  1.03923e+01
       O  1.95823e+01  1.52502e+00  1.04851e+01
       H  1.87318e+01  2.15375e+00  8.97329e+00
       H  2.13637e+01  1.68794e+00  1.01219e+01
       O  1.96336e+01  1.05604e+01  1.06580e+01
       H  1.86792e+01  9.99704e+00  9.14668e+00
       H  1.95498e+01  1.24074e+01  1.06647e+01
       O  2.48565e+01  3.53246e+00  3.00887e+00
       H  2.15942e+01  3.43259e+00  2.01557e+00
       H  2.54236e+01  3.08172e+00  4.68564e+00
       O  2.46674e+01  3.80232e+00  9.74158e+00
       H  2.62162e+01  4.01115e+00  1.31845e+01
       H  2.43310e+01  5.64120e+00  9.84359e+00
       O  1.71803e+01  8.57481e+00  1.48626e+01
       H  1.75517e+01  4.98838e+00  1.49023e+01
       H  1.80895e+01  9.30483e+00  1.34255e+01
       O  1.71354e+01  8.98910e+00  6.59162e+00
       H  1.53619e+01  9.60101e+00  6.61773e+00
       H  1.78607e+01  9.46549e+00  4.97194e+00
       O  1.94934e+01  9.98258e+00  1.79370e+00
       H  1.86623e+01  8.59957e+00  9.26560e-01
       H  2.12423e+01  9.44781e+00  1.94455e+00
       O  1.98662e+01  3.88528e+00  1.49764e+00
       H  1.92899e+01  2.57618e+00  3.86898e-01
       H  2.81650e+01  3.15390e+00  9.57310e+00
       O  2.69742e+01  3.76813e+00  8.32135e+00
       H  2.69030e+01  3.73764e+00  1.59884e+01
       H  2.60224e+01  9.63416e+00  1.31451e+01
       O  2.76036e+01  4.28329e+00  1.43476e+01
       H  2.46599e+01  5.58744e+00  1.88262e+01
       H  2.35315e+01  2.88286e+00  1.89327e+01
       O  2.71404e+01  9.58203e+00  1.46182e+01
       H  2.76471e+01  7.80901e+00  1.45787e+01
       H  2.74967e+01  1.32496e+01  1.47930e+01
       O  1.76792e+01  3.15982e+00  1.50562e+01
       H  1.83691e+01  2.55491e+00  1.34446e+01
       H  1.95587e+01  2.18505e+00  1.77610e+01
       O  2.73316e+00  1.76345e+01  6.30651e+00
       H  3.45804e+00  1.68961e+01  7.84794e+00
       H  2.78844e+00  1.94417e+01  6.54926e+00
       O  1.00616e+01  2.19904e+01  1.74747e+00
       H  1.02921e+01  2.01694e+01  1.64556e+00
       H  7.11029e+00  2.34181e+01  1.94890e+00
       O  1.25370e+01  2.39759e+01  6.37884e+00
       H  1.43267e+01  2.34803e+01  6.34224e+00
       H  1.09524e+01  2.24839e+01  3.27977e+00
       O  9.69168e+00  2.24231e+01  1.05507e+01
       H  1.15354e+01  2.31425e+01  1.34575e+01
       H  1.05957e+01  2.29396e+01  9.01680e+00
       O  4.79648e+00  1.55217e+01  1.05356e+01
       H  6.57527e+00  1.60089e+01  1.06866e+01
       H  3.97595e+00  1.60603e+01  1.20929e+01
       O  4.78071e+00  2.45856e+01  1.05867e+01
       H  4.75365e+00  2.64028e+01  1.05138e+01
       H  8.04942e+00  2.32384e+01  1.05164e+01
       O  1.01330e+01  1.64136e+01  1.79553e+00
       H  8.27463e+00  1.62201e+01  1.88553e+00
       H  1.06915e+01  1.49680e+01  8.58790e-01
       O  9.82938e+00  1.71565e+01  1.07911e+01
       H  1.06647e+01  1.67255e+01  9.18540e+00
       H  9.69299e+00  1.89980e+01  1.07745e+01
       O  2.47557e+00  2.23373e+01  1.48882e+01
       H  2.18515e+00  1.90923e+01  1.49257e+01
       H  3.22018e+00  2.30728e+01  1.33749e+01
       O  2.50355e+00  2.31091e+01  6.15595e+00
       H  7.70999e-01  2.32646e+01  5.77236e+00
       H  3.87855e+00  2.41071e+01  9.03396e+00
       O  5.54741e+00  2.43997e+01  2.20415e+00
       H  5.13979e+00  2.52333e+01  6.46528e-01
       H  3.54219e+00  2.35629e+01  4.65038e+00
       O  5.07127e+00  1.60407e+01  2.18954e+00
       H  3.84139e+00  1.59371e+01  8.60396e-01
       H  4.17402e+00  1.66499e+01  3.72497e+00
       O  1.23338e+01  1.60253e+01  6.47270e+00
       H  1.41020e+01  1.65533e+01  6.36466e+00
       H  1.15658e+01  1.62207e+01  4.79614e+00
       O  1.24015e+01  1.55016e+01  1.49839e+01
       H  1.15486e+01  1.61027e+01  1.34467e+01
       H  1.41525e+01  1.60906e+01  1.49035e+01
       O  1.23502e+01  2.35608e+01  1.50449e+01
       H  1.11133e+01  2.76085e+01  1.68220e+01
       H  1.41332e+01  2.31069e+01  1.48808e+01
       O  2.28808e+00  1.72309e+01  1.49469e+01
       H  5.85642e-01  1.65883e+01  1.49950e+01
       H  4.16715e+00  1.60851e+01  1.76274e+01
       O  1.73749e+01  1.74899e+01  6.40413e+00
       H  1.81626e+01  1.66462e+01  4.93103e+00
       H  1.82135e+01  1.68158e+01  7.92243e+00
       O  2.48428e+01  2.22955e+01  2.13490e+00
       H  2.48826e+01  2.04592e+01  2.23250e+00
       H  2.30936e+01  2.27360e+01  1.82541e+00
       O  2.66017e+01  2.47948e+01  6.34027e+00
       H  2.54554e+01  2.31844e+01  9.03884e+00
       H  2.60924e+01  2.39466e+01  4.76895e+00
       O  2.46907e+01  2.23034e+01  1.04748e+01
       H  2.29583e+01  2.29017e+01  1.05313e+01
       H  2.66079e+01  2.21962e+01  1.34837e+01
       O  1.97557e+01  1.57963e+01  1.06407e+01
       H  2.15465e+01  1.62491e+01  1.07860e+01
       H  1.89456e+01  1.62848e+01  1.22476e+01
       O  1.97102e+01  2.44055e+01  1.04566e+01
       H  1.88991e+01  2.37285e+01  8.91891e+00
       H  1.97443e+01  2.62076e+01  1.02612e+01
       O  2.49780e+01  1.69194e+01  2.55577e+00
       H  2.58230e+01  1.61729e+01  1.14356e+00
       H  2.59463e+01  1.64498e+01  4.07304e+00
       O  2.48826e+01  1.70835e+01  1.08717e+01
       H  2.65513e+01  1.62599e+01  8.36297e+00
       H  2.49510e+01  1.89320e+01  1.09806e+01
       O  1.75281e+01  2.23520e+01  1.49317e+01
       H  1.84019e+01  2.30633e+01  1.34726e+01
       H  1.83405e+01  2.30534e+01  1.64346e+01
       O  1.74519e+01  2.24542e+01  6.25731e+00
       H  1.75059e+01  2.05634e+01  6.29816e+00
       H  1.81999e+01  2.29447e+01  4.65085e+00
       O  1.94169e+01  2.37299e+01  1.31331e+00
       H  1.85993e+01  2.26518e+01  8.57512e-02
       H  1.93424e+01  2.54079e+01  6.16984e-01
       O  1.95533e+01  1.54652e+01  2.25194e+00
       H  1.92711e+01  1.36791e+01  1.91305e+00
       H  2.13677e+01  1.56830e+01  2.39359e+00
       O  2.76600e+01  1.57755e+01  6.89052e+00
       H  2.78231e+01  1.26185e+01  6.70211e+00
       H  2.91395e+01  1.67973e+01  7.09427e+00
       O  2.73741e+01  1.50738e+01  1.46784e+01
       H  2.58238e+01  1.64572e+01  1.23799e+01
       H  2.65317e+01  1.56360e+01  1.62204e+01
       O  2.76735e+01  2.18670e+01  1.49434e+01
       H  2.65913e+01  2.20197e+01  1.64110e+01
       H  2.78560e+01  2.65771e+01  1.42313e+01
       O  1.73827e+01  1.71416e+01  1.49806e+01
       H  1.74648e+01  1.89834e+01  1.50873e+01
       H  1.82713e+01  1.64950e+01  1.64935e+01
       O  2.17268e+00  3.62970e+00  2.34316e+01
       H  4.09756e+00  2.44707e+00  2.05942e+01
       H  4.30522e-01  3.20211e+00  2.31599e+01
       O  9.76199e+00  8.47968e+00  1.92183e+01
       H  1.06369e+01  9.16457e+00  2.06986e+01
       H  1.06970e+01  9.07543e+00  1.77324e+01
       O  1.21861e+01  1.03043e+01  2.35515e+01
       H  1.13006e+01  9.76925e+00  2.50982e+01
       H  1.22338e+01  1.21497e+01  2.36026e+01
       O  9.73759e+00  8.91420e+00  2.78969e+01
       H  9.96684e+00  5.46773e+00  2.78454e+01
       H  7.99612e+00  9.52996e+00  2.78144e+01
       O  4.66979e+00  2.90663e+00  2.79902e+01
       H  4.38580e+00  4.68081e+00  2.83478e+01
       H  3.86130e+00  2.70607e+00  2.63399e+01
       O  4.75834e+00  1.06011e+01  2.78385e+01
       H  4.70958e+00  1.24541e+01  2.78349e+01
       H  4.04286e+00  1.00364e+01  2.94398e+01
       O  1.01061e+01  3.13604e+00  1.94738e+01
       H  8.35556e+00  2.52099e+00  1.94339e+01
       H  9.96326e+00  4.97411e+00  1.93838e+01
       O  1.00529e+01  3.62105e+00  2.78840e+01
       H  1.17810e+01  2.56257e+00  3.06188e+01
       H  8.30595e+00  3.05591e+00  2.77384e+01
       O  3.34250e+00  8.54988e+00  3.25169e+01
       H  2.84047e+00  6.79759e+00  3.27759e+01
       H  4.80536e+00  8.78099e+00  3.35812e+01
       O  2.34846e+00  8.62678e+00  2.34596e+01
       H  2.24322e+00  5.51926e+00  2.34139e+01
       H  3.18293e+00  9.37794e+00  2.49164e+01
       O  4.88522e+00  1.01987e+01  1.91984e+01
       H  3.27848e+00  9.22727e+00  2.19679e+01
       H  6.63363e+00  9.56301e+00  1.91758e+01
       O  5.10293e+00  1.73935e+00  1.92294e+01
       H  4.29468e+00  2.27926e+00  1.76676e+01
       H  1.20746e+01  2.24367e+00  2.21724e+01
       O  1.31166e+01  1.93538e+00  2.36721e+01
       H  1.20895e+01  2.45101e+00  2.51029e+01
       H  1.61878e+01  2.77823e+00  2.36336e+01
       O  1.27565e+01  2.10943e+00  3.21232e+01
       H  1.18610e+01  2.86567e+00  3.35131e+01
       H  1.60112e+01  3.41914e+00  3.20576e+01
       O  1.18438e+01  1.10693e+01  3.21166e+01
       H  1.05066e+01  9.72857e+00  2.93884e+01
       H  1.36124e+01  1.04802e+01  3.22458e+01
       O  2.26781e+00  3.30182e+00  3.29074e+01
       H  7.90207e-01  2.88821e+00  3.19159e+01
       H  3.61520e+00  2.46567e+00  3.19929e+01
       O  1.79342e+01  3.47310e+00  2.35822e+01
       H  1.76688e+01  5.30225e+00  2.34613e+01
       H  1.96980e+01  2.23694e+00  2.06991e+01
       O  2.43077e+01  9.06893e+00  1.89642e+01
       H  2.51950e+01  9.54377e+00  2.05120e+01
       H  2.53801e+01  9.49649e+00  1.75133e+01
       O  2.66890e+01  9.76758e+00  2.36035e+01
       H  2.74389e+01  8.07114e+00  2.35377e+01
       H  2.54520e+01  9.55646e+00  2.49747e+01
       O  2.36819e+01  8.94984e+00  2.76878e+01
       H  2.48438e+01  9.21914e+00  2.91182e+01
       H  2.32544e+01  7.14697e+00  2.76728e+01
       O  2.05627e+01  2.59127e+00  2.77480e+01
       H  1.96617e+01  2.88232e+00  2.61036e+01
       H  1.85671e+01  3.75497e+00  3.06602e+01
       O  1.90215e+01  1.10645e+01  2.76098e+01
       H  1.77483e+01  9.58973e+00  2.49172e+01
       H  2.07460e+01  1.03990e+01  2.77564e+01
       O  2.51684e+01  3.80981e+00  1.88418e+01
       H  2.67522e+01  3.98678e+00  2.18605e+01
       H  2.57392e+01  3.98805e+00  2.45563e+01
       O  2.29389e+01  3.83100e+00  2.73269e+01
       H  2.78109e+01  1.92695e+00  3.04960e+01
       H  2.39602e+01  3.11698e+00  2.87027e+01
       O  1.67446e+01  9.49812e+00  3.22501e+01
       H  1.70383e+01  7.66597e+00  3.23150e+01
       H  1.74704e+01  1.00219e+01  3.06431e+01
       O  1.70972e+01  8.73568e+00  2.33989e+01
       H  1.52831e+01  9.13295e+00  2.33950e+01
       H  1.85677e+01  9.77739e+00  2.07596e+01
       O  1.93709e+01  1.05020e+01  1.92329e+01
       H  1.79700e+01  9.23367e+00  1.63976e+01
       H  2.11206e+01  9.88341e+00  1.91794e+01
       O  2.06349e+01  1.73333e+00  1.91989e+01
       H  1.95871e+01  1.35927e+01  1.92332e+01
       H  2.16054e+01  1.57805e+01  1.92096e+01
       O  2.72129e+01  4.47983e+00  2.35923e+01
       H  2.56436e+01  1.25479e+00  3.23292e+01
       H  2.67000e+01  9.08438e+00  3.30294e+01
       O  2.62423e+01  2.53220e+00  3.11832e+01
       H  2.70272e+01  1.17354e+01  3.18082e+01
       H  2.63571e+01  1.58851e+01  3.03709e+01
       O  2.70662e+01  9.90989e+00  3.14654e+01
       H  2.88426e+01  1.56662e+01  3.18732e+01
       H  2.59956e+01  1.64129e+01  2.60507e+01
       O  1.76325e+01  4.30263e+00  3.21424e+01
       H  1.18856e+01  1.28751e+01  3.23823e+01
       H  1.92333e+01  1.28930e+01  2.74739e+01
       O  2.84996e+00  1.76188e+01  2.34370e+01
       H  3.56899e+00  1.68164e+01  2.19241e+01
       H  3.13081e+00  1.94107e+01  2.32479e+01
       O  9.95339e+00  2.23622e+01  1.93769e+01
       H  1.08203e+01  2.27621e+01  1.77745e+01
       H  8.26092e+00  2.30698e+01  1.92101e+01
       O  1.26264e+01  2.43364e+01  2.34072e+01
       H  1.16557e+01  2.39380e+01  2.49146e+01
       H  1.16413e+01  2.36727e+01  2.19790e+01
       O  9.76375e+00  2.30552e+01  2.77015e+01
       H  9.82411e+00  1.94250e+01  2.72656e+01
       H  8.04931e+00  2.37221e+01  2.77905e+01
       O  4.94013e+00  1.58702e+01  2.77338e+01
       H  4.14179e+00  1.64419e+01  2.61427e+01
       H  6.71789e+00  1.63765e+01  2.76040e+01
       O  4.73976e+00  2.49129e+01  2.78951e+01
       H  4.73149e+00  2.67237e+01  2.80919e+01
       H  3.95798e+00  2.42095e+01  2.94631e+01
       O  9.95159e+00  1.70613e+01  1.91909e+01
       H  9.94088e+00  1.89097e+01  1.91946e+01
       H  1.08563e+01  1.65257e+01  1.76488e+01
       O  9.87795e+00  1.75970e+01  2.74644e+01
       H  1.13586e+01  1.71889e+01  3.05872e+01
       H  1.08333e+01  1.69141e+01  2.60116e+01
       O  2.79414e+00  2.29510e+01  3.20269e+01
       H  2.91896e+00  2.10747e+01  3.20564e+01
       H  1.05713e+00  2.32959e+01  3.24113e+01
       O  2.54754e+00  2.31921e+01  2.35031e+01
       H  7.59308e-01  2.29854e+01  2.37339e+01
       H  3.22959e+00  2.38012e+01  2.51198e+01
       O  5.01844e+00  2.45843e+01  1.91653e+01
       H  4.06269e+00  2.41567e+01  2.07003e+01
       H  3.35220e+00  2.31182e+01  1.62902e+01
       O  5.01184e+00  1.55084e+01  1.91626e+01
       H  4.98361e+00  1.20440e+01  1.91704e+01
       H  6.78671e+00  1.60371e+01  1.90491e+01
       O  1.24201e+01  1.56284e+01  2.34975e+01
       H  1.41595e+01  1.62429e+01  2.33528e+01
       H  1.15721e+01  1.60937e+01  2.19068e+01
       O  1.20863e+01  1.73442e+01  3.22845e+01
       H  1.38931e+01  1.70784e+01  3.20630e+01
       H  1.82707e+01  1.66191e+01  3.35240e+01
       O  1.21484e+01  2.29490e+01  3.25838e+01
       H  1.04966e+01  2.32710e+01  2.93760e+01
       H  1.18825e+01  2.11494e+01  3.29465e+01
       O  2.84482e+00  1.79323e+01  3.18891e+01
       H  3.28371e+00  1.68553e+01  3.32491e+01
       H  3.59710e+00  1.71298e+01  3.03644e+01
       O  1.73039e+01  1.75043e+01  2.31804e+01
       H  1.82436e+01  1.67762e+01  2.17369e+01
       H  1.82475e+01  1.70188e+01  2.47055e+01
       O  2.46079e+01  2.19718e+01  1.94889e+01
       H  2.49005e+01  1.85361e+01  1.94491e+01
       H  2.29753e+01  2.28114e+01  1.94645e+01
       O  2.74101e+01  2.38122e+01  2.34405e+01
       H  2.55840e+01  2.27461e+01  2.08543e+01
       H  2.84191e+01  2.53084e+01  2.35426e+01
       O  2.48203e+01  2.25307e+01  2.77676e+01
       H  2.65986e+01  2.35690e+01  2.50890e+01
       H  2.30587e+01  2.30830e+01  2.76766e+01
       O  1.98521e+01  1.62679e+01  2.75043e+01
       H  2.16744e+01  1.65681e+01  2.75545e+01
       H  1.91501e+01  1.67342e+01  2.91518e+01
       O  1.97928e+01  2.42266e+01  2.74461e+01
       H  1.88525e+01  2.35659e+01  2.59518e+01
       H  1.82947e+01  2.31621e+01  3.05054e+01
       O  2.49292e+01  1.66937e+01  1.92699e+01
       H  2.58303e+01  1.60267e+01  2.07384e+01
       H  2.93898e+01  1.50750e+01  2.31358e+01
       O  2.50743e+01  1.71675e+01  2.74710e+01
       H  2.51861e+01  1.89985e+01  2.73282e+01
       H  2.75088e+01  1.28364e+01  2.35327e+01
       O  1.76532e+01  2.25937e+01  3.21361e+01
       H  1.58719e+01  2.30251e+01  3.21705e+01
       H  1.77512e+01  1.92874e+01  3.23087e+01
       O  1.73096e+01  2.25850e+01  2.33922e+01
       H  1.55103e+01  2.31529e+01  2.34064e+01
       H  1.72872e+01  2.07152e+01  2.32573e+01
       O  1.97255e+01  2.43326e+01  1.93008e+01
       H  1.95993e+01  2.61466e+01  1.93308e+01
       H  1.87915e+01  2.37247e+01  2.08137e+01
       O  1.97786e+01  1.54663e+01  1.91726e+01
       H  1.06358e+01  2.87543e+01  1.74877e+01
       H  1.97090e+01  2.60398e+01  2.73076e+01
       O  2.76387e+01  1.47065e+01  2.34581e+01
       H  2.54556e+01  2.30850e+01  2.94024e+01
       H  2.64653e+01  2.30517e+01  3.39285e+01
       O  2.70950e+01  1.51757e+01  3.19163e+01
       H  2.69536e+01  2.57699e+01  3.30848e+01
       H  1.15044e+01  2.38702e+01  3.40094e+01
       O  2.68859e+01  2.40825e+01  3.24863e+01
       H  2.76228e+01  2.79072e+01  1.38358e+01
       H  2.83242e+01  2.53086e+01  6.10157e+00
       O  1.75797e+01  1.74481e+01  3.20583e+01
       H  5.18747e+00  2.63925e+01  1.91685e+01
       H  1.25516e+01  2.57983e+01  6.22082e+00
