192
# CELL(abcABC):    8.99400    15.57800    14.64400    90.00000    90.00000    90.00000  Step:           0  Bead:      13 positions{atomic_unit}  cell{atomic_unit}
       O  0.00000e+00  4.90636e+00  8.60635e-01
       H  1.55180e+01  4.05293e+00  2.61830e-01
       H  1.47818e+00  4.05293e+00  2.61830e-01
       O  4.24905e+00  1.22659e+01  8.60635e-01
       H  2.77087e+00  1.14125e+01  2.61830e-01
       H  5.72723e+00  1.14125e+01  2.61830e-01
       O  4.24905e+00  2.45318e+00  1.29759e+01
       H  4.24905e+00  7.46324e-01  1.35747e+01
       H  4.24905e+00  2.45318e+00  1.11671e+01
       O  0.00000e+00  9.81272e+00  1.29759e+01
       H  0.00000e+00  8.10586e+00  1.35747e+01
       H  0.00000e+00  9.81272e+00  1.11671e+01
       O  4.24905e+00  2.45318e+00  7.77892e+00
       H  2.77087e+00  3.30660e+00  7.18012e+00
       H  5.72723e+00  3.30660e+00  7.18012e+00
       O  0.00000e+00  9.81272e+00  7.77892e+00
       H  1.55180e+01  1.06661e+01  7.18012e+00
       H  1.47818e+00  1.06661e+01  7.18012e+00
       O  0.00000e+00  4.90636e+00  6.05765e+00
       H  0.00000e+00  4.90636e+00  4.24881e+00
       H  0.00000e+00  6.61321e+00  6.65646e+00
       O  4.24905e+00  1.22659e+01  6.05765e+00
       H  4.24905e+00  1.22659e+01  4.24881e+00
       H  4.24905e+00  1.39728e+01  6.65646e+00
       O  0.00000e+00  4.90636e+00  1.46972e+01
       H  1.55180e+01  4.05293e+00  1.40984e+01
       H  1.47818e+00  4.05293e+00  1.40984e+01
       O  4.24905e+00  1.22659e+01  1.46972e+01
       H  2.77087e+00  1.14125e+01  1.40984e+01
       H  5.72723e+00  1.14125e+01  1.40984e+01
       O  4.24905e+00  2.45318e+00  2.68125e+01
       H  4.24905e+00  7.46324e-01  2.74113e+01
       H  4.24905e+00  2.45318e+00  2.50037e+01
       O  0.00000e+00  9.81272e+00  2.68125e+01
       H  0.00000e+00  8.10586e+00  2.74113e+01
       H  0.00000e+00  9.81272e+00  2.50037e+01
       O  4.24905e+00  2.45318e+00  2.16155e+01
       H  2.77087e+00  3.30660e+00  2.10167e+01
       H  5.72723e+00  3.30660e+00  2.10167e+01
       O  0.00000e+00  9.81272e+00  2.16155e+01
       H  1.55180e+01  1.06661e+01  2.10167e+01
       H  1.47818e+00  1.06661e+01  2.10167e+01
       O  0.00000e+00  4.90636e+00  1.98942e+01
       H  0.00000e+00  4.90636e+00  1.80854e+01
       H  0.00000e+00  6.61321e+00  2.04930e+01
       O  4.24905e+00  1.22659e+01  1.98942e+01
       H  4.24905e+00  1.22659e+01  1.80854e+01
       H  4.24905e+00  1.39728e+01  2.04930e+01
       O  0.00000e+00  1.96254e+01  8.60635e-01
       H  1.55180e+01  1.87720e+01  2.61830e-01
       H  1.47818e+00  1.87720e+01  2.61830e-01
       O  4.24905e+00  2.69850e+01  8.60635e-01
       H  2.77087e+00  2.61315e+01  2.61830e-01
       H  5.72723e+00  2.61315e+01  2.61830e-01
       O  4.24905e+00  1.71723e+01  1.29759e+01
       H  4.24905e+00  1.54654e+01  1.35747e+01
       H  4.24905e+00  1.71723e+01  1.11671e+01
       O  0.00000e+00  2.45318e+01  1.29759e+01
       H  0.00000e+00  2.28249e+01  1.35747e+01
       H  0.00000e+00  2.45318e+01  1.11671e+01
       O  4.24905e+00  1.71723e+01  7.77892e+00
       H  2.77087e+00  1.80257e+01  7.18012e+00
       H  5.72723e+00  1.80257e+01  7.18012e+00
       O  0.00000e+00  2.45318e+01  7.77892e+00
       H  1.55180e+01  2.53852e+01  7.18012e+00
       H  1.47818e+00  2.53852e+01  7.18012e+00
       O  0.00000e+00  1.96254e+01  6.05765e+00
       H  0.00000e+00  1.96254e+01  4.24881e+00
       H  0.00000e+00  2.13323e+01  6.65646e+00
       O  4.24905e+00  2.69850e+01  6.05765e+00
       H  4.24905e+00  2.69850e+01  4.24881e+00
       H  4.24905e+00  2.86918e+01  6.65646e+00
       O  0.00000e+00  1.96254e+01  1.46972e+01
       H  1.55180e+01  1.87720e+01  1.40984e+01
       H  1.47818e+00  1.87720e+01  1.40984e+01
       O  4.24905e+00  2.69850e+01  1.46972e+01
       H  2.77087e+00  2.61315e+01  1.40984e+01
       H  5.72723e+00  2.61315e+01  1.40984e+01
       O  4.24905e+00  1.71723e+01  2.68125e+01
       H  4.24905e+00  1.54654e+01  2.74113e+01
       H  4.24905e+00  1.71723e+01  2.50037e+01
       O  0.00000e+00  2.45318e+01  2.68125e+01
       H  0.00000e+00  2.28249e+01  2.74113e+01
       H  0.00000e+00  2.45318e+01  2.50037e+01
       O  4.24905e+00  1.71723e+01  2.16155e+01
       H  2.77087e+00  1.80257e+01  2.10167e+01
       H  5.72723e+00  1.80257e+01  2.10167e+01
       O  0.00000e+00  2.45318e+01  2.16155e+01
       H  1.55180e+01  2.53852e+01  2.10167e+01
       H  1.47818e+00  2.53852e+01  2.10167e+01
       O  0.00000e+00  1.96254e+01  1.98942e+01
       H  0.00000e+00  1.96254e+01  1.80854e+01
       H  0.00000e+00  2.13323e+01  2.04930e+01
       O  4.24905e+00  2.69850e+01  1.98942e+01
       H  4.24905e+00  2.69850e+01  1.80854e+01
       H  4.24905e+00  2.86918e+01  2.04930e+01
       O  8.49810e+00  4.90636e+00  8.60635e-01
       H  7.01992e+00  4.05293e+00  2.61830e-01
       H  9.97628e+00  4.05293e+00  2.61830e-01
       O  1.27471e+01  1.22659e+01  8.60635e-01
       H  1.12690e+01  1.14125e+01  2.61830e-01
       H  1.42253e+01  1.14125e+01  2.61830e-01
       O  1.27471e+01  2.45318e+00  1.29759e+01
       H  1.27471e+01  7.46324e-01  1.35747e+01
       H  1.27471e+01  2.45318e+00  1.11671e+01
       O  8.49810e+00  9.81272e+00  1.29759e+01
       H  8.49810e+00  8.10586e+00  1.35747e+01
       H  8.49810e+00  9.81272e+00  1.11671e+01
       O  1.27471e+01  2.45318e+00  7.77892e+00
       H  1.12690e+01  3.30660e+00  7.18012e+00
       H  1.42253e+01  3.30660e+00  7.18012e+00
       O  8.49810e+00  9.81272e+00  7.77892e+00
       H  7.01992e+00  1.06661e+01  7.18012e+00
       H  9.97628e+00  1.06661e+01  7.18012e+00
       O  8.49810e+00  4.90636e+00  6.05765e+00
       H  8.49810e+00  4.90636e+00  4.24881e+00
       H  8.49810e+00  6.61321e+00  6.65646e+00
       O  1.27471e+01  1.22659e+01  6.05765e+00
       H  1.27471e+01  1.22659e+01  4.24881e+00
       H  1.27471e+01  1.39728e+01  6.65646e+00
       O  8.49810e+00  4.90636e+00  1.46972e+01
       H  7.01992e+00  4.05293e+00  1.40984e+01
       H  9.97628e+00  4.05293e+00  1.40984e+01
       O  1.27471e+01  1.22659e+01  1.46972e+01
       H  1.12690e+01  1.14125e+01  1.40984e+01
       H  1.42253e+01  1.14125e+01  1.40984e+01
       O  1.27471e+01  2.45318e+00  2.68125e+01
       H  1.27471e+01  7.46324e-01  2.74113e+01
       H  1.27471e+01  2.45318e+00  2.50037e+01
       O  8.49810e+00  9.81272e+00  2.68125e+01
       H  8.49810e+00  8.10586e+00  2.74113e+01
       H  8.49810e+00  9.81272e+00  2.50037e+01
       O  1.27471e+01  2.45318e+00  2.16155e+01
       H  1.12690e+01  3.30660e+00  2.10167e+01
       H  1.42253e+01  3.30660e+00  2.10167e+01
       O  8.49810e+00  9.81272e+00  2.16155e+01
       H  7.01992e+00  1.06661e+01  2.10167e+01
       H  9.97628e+00  1.06661e+01  2.10167e+01
       O  8.49810e+00  4.90636e+00  1.98942e+01
       H  8.49810e+00  4.90636e+00  1.80854e+01
       H  8.49810e+00  6.61321e+00  2.04930e+01
       O  1.27471e+01  1.22659e+01  1.98942e+01
       H  1.27471e+01  1.22659e+01  1.80854e+01
       H  1.27471e+01  1.39728e+01  2.04930e+01
       O  8.49810e+00  1.96254e+01  8.60635e-01
       H  7.01992e+00  1.87720e+01  2.61830e-01
       H  9.97628e+00  1.87720e+01  2.61830e-01
       O  1.27471e+01  2.69850e+01  8.60635e-01
       H  1.12690e+01  2.61315e+01  2.61830e-01
       H  1.42253e+01  2.61315e+01  2.61830e-01
       O  1.27471e+01  1.71723e+01  1.29759e+01
       H  1.27471e+01  1.54654e+01  1.35747e+01
       H  1.27471e+01  1.71723e+01  1.11671e+01
       O  8.49810e+00  2.45318e+01  1.29759e+01
       H  8.49810e+00  2.28249e+01  1.35747e+01
       H  8.49810e+00  2.45318e+01  1.11671e+01
       O  1.27471e+01  1.71723e+01  7.77892e+00
       H  1.12690e+01  1.80257e+01  7.18012e+00
       H  1.42253e+01  1.80257e+01  7.18012e+00
       O  8.49810e+00  2.45318e+01  7.77892e+00
       H  7.01992e+00  2.53852e+01  7.18012e+00
       H  9.97628e+00  2.53852e+01  7.18012e+00
       O  8.49810e+00  1.96254e+01  6.05765e+00
       H  8.49810e+00  1.96254e+01  4.24881e+00
       H  8.49810e+00  2.13323e+01  6.65646e+00
       O  1.27471e+01  2.69850e+01  6.05765e+00
       H  1.27471e+01  2.69850e+01  4.24881e+00
       H  1.27471e+01  2.86918e+01  6.65646e+00
       O  8.49810e+00  1.96254e+01  1.46972e+01
       H  7.01992e+00  1.87720e+01  1.40984e+01
       H  9.97628e+00  1.87720e+01  1.40984e+01
       O  1.27471e+01  2.69850e+01  1.46972e+01
       H  1.12690e+01  2.61315e+01  1.40984e+01
       H  1.42253e+01  2.61315e+01  1.40984e+01
       O  1.27471e+01  1.71723e+01  2.68125e+01
       H  1.27471e+01  1.54654e+01  2.74113e+01
       H  1.27471e+01  1.71723e+01  2.50037e+01
       O  8.49810e+00  2.45318e+01  2.68125e+01
       H  8.49810e+00  2.28249e+01  2.74113e+01
       H  8.49810e+00  2.45318e+01  2.50037e+01
       O  1.27471e+01  1.71723e+01  2.16155e+01
       H  1.12690e+01  1.80257e+01  2.10167e+01
       H  1.42253e+01  1.80257e+01  2.10167e+01
       O  8.49810e+00  2.45318e+01  2.16155e+01
       H  7.01992e+00  2.53852e+01  2.10167e+01
       H  9.97628e+00  2.53852e+01  2.10167e+01
       O  8.49810e+00  1.96254e+01  1.98942e+01
       H  8.49810e+00  1.96254e+01  1.80854e+01
       H  8.49810e+00  2.13323e+01  2.04930e+01
       O  1.27471e+01  2.69850e+01  1.98942e+01
       H  1.27471e+01  2.69850e+01  1.80854e+01
       H  1.27471e+01  2.86918e+01  2.04930e+01
