192
# CELL(abcABC):   16.99620    29.43815    27.67315    90.00000    90.00000    90.00000  Step:           0  Bead:      21 positions{atomic_unit}  cell{atomic_unit}
       O -8.21943e+00 -9.93714e+00 -1.31733e+01
       H  7.30975e+00 -1.09659e+01 -1.36333e+01
       H -6.70309e+00 -1.09427e+01 -1.35003e+01
       O -3.97045e+00 -2.57760e+00 -1.31733e+01
       H -5.43740e+00 -3.60640e+00 -1.36335e+01
       H -2.45410e+00 -3.58307e+00 -1.35002e+01
       O -3.95479e+00 -1.25494e+01 -7.82537e-01
       H -3.95303e+00 -1.43463e+01 -2.27998e-01
       H -4.14654e+00 -1.25640e+01 -2.59980e+00
       O -8.20381e+00 -5.18980e+00 -7.82573e-01
       H -8.20206e+00 -6.98662e+00 -2.28079e-01
       H -8.39554e+00 -5.20430e+00 -2.59985e+00
       O -4.52774e+00 -1.21415e+01 -6.25501e+00
       H -6.04401e+00 -1.11359e+01 -6.58198e+00
       H -3.06070e+00 -1.11128e+01 -6.71509e+00
       O  8.21948e+00 -4.78197e+00 -6.25503e+00
       H  6.70316e+00 -3.77646e+00 -6.58191e+00
       H -7.30970e+00 -3.75321e+00 -6.71514e+00
       O  8.20373e+00 -9.52922e+00 -7.70081e+00
       H  8.39566e+00 -9.51468e+00 -9.51806e+00
       H  8.20220e+00 -7.73240e+00 -7.14624e+00
       O -4.54345e+00 -2.16975e+00 -7.70084e+00
       H -4.35162e+00 -2.15526e+00 -9.51812e+00
       H -4.54503e+00 -3.72917e-01 -7.14634e+00
       O -8.21943e+00 -9.93697e+00  6.63195e-01
       H  7.30977e+00 -1.09657e+01  2.03202e-01
       H -6.70308e+00 -1.09425e+01  3.36227e-01
       O -3.97044e+00 -2.57760e+00  6.63173e-01
       H -5.43747e+00 -3.60635e+00  2.03069e-01
       H -2.45410e+00 -3.58312e+00  3.36346e-01
       O -3.95472e+00 -1.25494e+01  1.30540e+01
       H -3.95309e+00 -1.43462e+01  1.36086e+01
       H -4.14653e+00 -1.25640e+01  1.12368e+01
       O -8.20380e+00 -5.18990e+00  1.30541e+01
       H -8.20202e+00 -6.98672e+00  1.36085e+01
       H -8.39553e+00 -5.20434e+00  1.12368e+01
       O -4.52771e+00 -1.21415e+01  7.58159e+00
       H -6.04402e+00 -1.11360e+01  7.25460e+00
       H -3.06070e+00 -1.11128e+01  7.12152e+00
       O  8.21944e+00 -4.78191e+00  7.58149e+00
       H  6.70312e+00 -3.77633e+00  7.25453e+00
       H -7.30974e+00 -3.75322e+00  7.12139e+00
       O  8.20378e+00 -9.52926e+00  6.13582e+00
       H  8.39564e+00 -9.51474e+00  4.31856e+00
       H  8.20221e+00 -7.73246e+00  6.69037e+00
       O -4.54344e+00 -2.16971e+00  6.13568e+00
       H -4.35161e+00 -2.15522e+00  4.31840e+00
       H -4.54506e+00 -3.72896e-01  6.69017e+00
       O -8.21947e+00  4.78210e+00 -1.31734e+01
       H  7.30974e+00  3.75335e+00 -1.36334e+01
       H -6.70314e+00  3.77651e+00 -1.35002e+01
       O -3.97046e+00  1.21415e+01 -1.31733e+01
       H -5.43745e+00  1.11127e+01 -1.36334e+01
       H -2.45410e+00  1.11360e+01 -1.35002e+01
       O -3.95479e+00  2.16971e+00 -7.82462e-01
       H -3.95303e+00  3.72884e-01 -2.27933e-01
       H -4.14646e+00  2.15509e+00 -2.59975e+00
       O -8.20376e+00  9.52923e+00 -7.82499e-01
       H -8.20200e+00  7.73238e+00 -2.27998e-01
       H -8.39546e+00  9.51472e+00 -2.59977e+00
       O -4.52774e+00  2.57749e+00 -6.25512e+00
       H -6.04400e+00  3.58312e+00 -6.58197e+00
       H -3.06066e+00  3.60618e+00 -6.71512e+00
       O  8.21949e+00  9.93715e+00 -6.25509e+00
       H  6.70318e+00  1.09426e+01 -6.58202e+00
       H -7.30970e+00  1.09659e+01 -6.71526e+00
       O  8.20366e+00  5.18988e+00 -7.70077e+00
       H  8.39552e+00  5.20437e+00 -9.51803e+00
       H  8.20217e+00  6.98669e+00 -7.14625e+00
       O -4.54337e+00  1.25494e+01 -7.70088e+00
       H -4.35159e+00  1.25639e+01 -9.51817e+00
       H -4.54500e+00  1.43462e+01 -7.14634e+00
       O -8.21952e+00  4.78190e+00  6.63226e-01
       H  7.30971e+00  3.75313e+00  2.03107e-01
       H -6.70317e+00  3.77635e+00  3.36440e-01
       O -3.97040e+00  1.21415e+01  6.63326e-01
       H -5.43738e+00  1.11127e+01  2.03185e-01
       H -2.45407e+00  1.11360e+01  3.36426e-01
       O -3.95476e+00  2.16964e+00  1.30541e+01
       H -3.95303e+00  3.72832e-01  1.36087e+01
       H -4.14651e+00  2.15510e+00  1.12369e+01
       O -8.20373e+00  9.52937e+00  1.30540e+01
       H -8.20206e+00  7.73252e+00  1.36085e+01
       H -8.39548e+00  9.51483e+00  1.12368e+01
       O -4.52770e+00  2.57756e+00  7.58140e+00
       H -6.04399e+00  3.58315e+00  7.25450e+00
       H -3.06066e+00  3.60630e+00  7.12138e+00
       O  8.21951e+00  9.93714e+00  7.58157e+00
       H  6.70319e+00  1.09427e+01  7.25463e+00
       H -7.30968e+00  1.09658e+01  7.12140e+00
       O  8.20369e+00  5.18993e+00  6.13578e+00
       H  8.39547e+00  5.20441e+00  4.31850e+00
       H  8.20212e+00  6.98674e+00  6.69030e+00
       O -4.54348e+00  1.25494e+01  6.13570e+00
       H -4.35158e+00  1.25639e+01  4.31845e+00
       H -4.54503e+00  1.43462e+01  6.69025e+00
       O  2.78573e-01 -9.93717e+00 -1.31734e+01
       H -1.18842e+00 -1.09659e+01 -1.36336e+01
       H  1.79493e+00 -1.09427e+01 -1.35002e+01
       O  4.52772e+00 -2.57751e+00 -1.31733e+01
       H  3.06068e+00 -3.60627e+00 -1.36334e+01
       H  6.04403e+00 -3.58305e+00 -1.35003e+01
       O  4.54334e+00 -1.25494e+01 -7.82465e-01
       H  4.54513e+00 -1.43463e+01 -2.27989e-01
       H  4.35168e+00 -1.25640e+01 -2.59974e+00
       O  2.94294e-01 -5.18980e+00 -7.82487e-01
       H  2.96032e-01 -6.98663e+00 -2.28053e-01
       H  1.02602e-01 -5.20427e+00 -2.59977e+00
       O  3.97042e+00 -1.21415e+01 -6.25517e+00
       H  2.45414e+00 -1.11359e+01 -6.58198e+00
       H  5.43747e+00 -1.11128e+01 -6.71526e+00
       O -2.78672e-01 -4.78194e+00 -6.25508e+00
       H -1.79498e+00 -3.77636e+00 -6.58199e+00
       H  1.18837e+00 -3.75320e+00 -6.71514e+00
       O -2.94511e-01 -9.52920e+00 -7.70081e+00
       H -1.02600e-01 -9.51466e+00 -9.51806e+00
       H -2.96005e-01 -7.73240e+00 -7.14625e+00
       O  3.95462e+00 -2.16972e+00 -7.70080e+00
       H  4.14654e+00 -2.15521e+00 -9.51804e+00
       H  3.95318e+00 -3.72879e-01 -7.14628e+00
       O  2.78541e-01 -9.93701e+00  6.63104e-01
       H -1.18842e+00 -1.09658e+01  2.03011e-01
       H  1.79493e+00 -1.09425e+01  3.36333e-01
       O  4.52773e+00 -2.57757e+00  6.63187e-01
       H  3.06068e+00 -3.60633e+00  2.03125e-01
       H  6.04402e+00 -3.58308e+00  3.36357e-01
       O  4.54332e+00 -1.25494e+01  1.30541e+01
       H  4.54518e+00 -1.43462e+01  1.36086e+01
       H  4.35169e+00 -1.25640e+01  1.12368e+01
       O  2.94281e-01 -5.18991e+00  1.30541e+01
       H  2.95995e-01 -6.98675e+00  1.36085e+01
       H  1.02570e-01 -5.20435e+00  1.12368e+01
       O  3.97044e+00 -1.21415e+01  7.58145e+00
       H  2.45413e+00 -1.11360e+01  7.25466e+00
       H  5.43745e+00 -1.11128e+01  7.12135e+00
       O -2.78601e-01 -4.78191e+00  7.58148e+00
       H -1.79495e+00 -3.77634e+00  7.25458e+00
       H  1.18839e+00 -3.75323e+00  7.12138e+00
       O -2.94501e-01 -9.52922e+00  6.13582e+00
       H -1.02637e-01 -9.51466e+00  4.31854e+00
       H -2.96013e-01 -7.73241e+00  6.69035e+00
       O  3.95462e+00 -2.16967e+00  6.13570e+00
       H  4.14656e+00 -2.15516e+00  4.31844e+00
       H  3.95315e+00 -3.72836e-01  6.69024e+00
       O  2.78636e-01  4.78206e+00 -1.31735e+01
       H -1.18832e+00  3.75329e+00 -1.36335e+01
       H  1.79499e+00  3.77651e+00 -1.35003e+01
       O  4.52773e+00  1.21415e+01 -1.31733e+01
       H  3.06066e+00  1.11127e+01 -1.36334e+01
       H  6.04403e+00  1.11360e+01 -1.35003e+01
       O  4.54332e+00  2.16970e+00 -7.82499e-01
       H  4.54510e+00  3.72872e-01 -2.27973e-01
       H  4.35161e+00  2.15513e+00 -2.59979e+00
       O  2.94188e-01  9.52923e+00 -7.82517e-01
       H  2.95976e-01  7.73239e+00 -2.28033e-01
       H  1.02486e-01  9.51470e+00 -2.59980e+00
       O  3.97041e+00  2.57752e+00 -6.25508e+00
       H  2.45414e+00  3.58307e+00 -6.58188e+00
       H  5.43747e+00  3.60626e+00 -6.71516e+00
       O -2.78677e-01  9.93714e+00 -6.25506e+00
       H -1.79497e+00  1.09427e+01 -6.58203e+00
       H  1.18838e+00  1.09659e+01 -6.71517e+00
       O -2.94451e-01  5.18990e+00 -7.70074e+00
       H -1.02475e-01  5.20442e+00 -9.51799e+00
       H -2.95971e-01  6.98671e+00 -7.14623e+00
       O  3.95453e+00  1.25494e+01 -7.70088e+00
       H  4.14650e+00  1.25638e+01 -9.51813e+00
       H  3.95314e+00  1.43462e+01 -7.14638e+00
       O  2.78666e-01  4.78190e+00  6.63181e-01
       H -1.18838e+00  3.75314e+00  2.03219e-01
       H  1.79499e+00  3.77637e+00  3.36305e-01
       O  4.52768e+00  1.21415e+01  6.63233e-01
       H  3.06065e+00  1.11127e+01  2.03130e-01
       H  6.04402e+00  1.11359e+01  3.36318e-01
       O  4.54337e+00  2.16963e+00  1.30541e+01
       H  4.54515e+00  3.72778e-01  1.36085e+01
       H  4.35165e+00  2.15511e+00  1.12368e+01
       O  2.94139e-01  9.52935e+00  1.30540e+01
       H  2.96028e-01  7.73252e+00  1.36085e+01
       H  1.02508e-01  9.51480e+00  1.12368e+01
       O  3.97044e+00  2.57752e+00  7.58146e+00
       H  2.45409e+00  3.58312e+00  7.25468e+00
       H  5.43745e+00  3.60627e+00  7.12136e+00
       O -2.78642e-01  9.93713e+00  7.58156e+00
       H -1.79498e+00  1.09426e+01  7.25459e+00
       H  1.18834e+00  1.09658e+01  7.12145e+00
       O -2.94462e-01  5.18993e+00  6.13575e+00
       H -1.02485e-01  5.20444e+00  4.31854e+00
       H -2.95928e-01  6.98677e+00  6.69031e+00
       O  3.95461e+00  1.25493e+01  6.13580e+00
       H  4.14651e+00  1.25638e+01  4.31854e+00
       H  3.95313e+00  1.43462e+01  6.69028e+00
192
# CELL(abcABC):   16.99620    29.43815    27.67315    90.00000    90.00000    90.00000  Step:          10  Bead:      21 positions{atomic_unit}  cell{atomic_unit}
       O -8.24483e+00 -9.93966e+00 -1.31369e+01
       H  7.20685e+00 -1.09249e+01 -1.35799e+01
       H -6.66547e+00 -1.10668e+01 -1.34385e+01
       O -4.00025e+00 -2.54825e+00 -1.32232e+01
       H -5.59586e+00 -3.59633e+00 -1.35488e+01
       H -2.37559e+00 -3.65085e+00 -1.33783e+01
       O -3.93575e+00 -1.25657e+01 -7.57511e-01
       H -3.93712e+00 -1.43266e+01 -3.30572e-01
       H -4.22454e+00 -1.25131e+01 -2.53770e+00
       O -8.17608e+00 -5.19899e+00 -7.67819e-01
       H -8.33394e+00 -7.11795e+00 -1.65202e-01
       H -8.68948e+00 -5.24325e+00 -2.33583e+00
       O -4.48047e+00 -1.21424e+01 -6.28410e+00
       H -6.08205e+00 -1.10697e+01 -6.63129e+00
       H -3.05988e+00 -1.11364e+01 -6.76688e+00
       O  8.21143e+00 -4.77575e+00 -6.32809e+00
       H  6.78402e+00 -3.90751e+00 -6.42816e+00
       H -7.30542e+00 -3.79282e+00 -6.83848e+00
       O  8.16637e+00 -9.52378e+00 -7.65445e+00
       H  8.37236e+00 -9.46837e+00 -9.60635e+00
       H  8.02140e+00 -7.75116e+00 -7.17700e+00
       O -4.53969e+00 -2.16482e+00 -7.73097e+00
       H -4.28842e+00 -2.15828e+00 -9.53391e+00
       H -4.58930e+00 -4.61899e-01 -7.04971e+00
       O -8.23868e+00 -9.93563e+00  6.48896e-01
       H  7.41933e+00 -1.10079e+01  6.93390e-02
       H -6.82069e+00 -1.09321e+01  3.31218e-01
       O -3.96570e+00 -2.54790e+00  6.49780e-01
       H -5.40273e+00 -3.65852e+00  3.05516e-01
       H -2.49505e+00 -3.75690e+00  1.85585e-01
       O -3.93661e+00 -1.25452e+01  1.30197e+01
       H -3.90884e+00 -1.44105e+01  1.37363e+01
       H -4.14101e+00 -1.26253e+01  1.12384e+01
       O -8.20630e+00 -5.21406e+00  1.31052e+01
       H -8.14938e+00 -7.06858e+00  1.35025e+01
       H -8.56039e+00 -5.23889e+00  1.11519e+01
       O -4.48666e+00 -1.21823e+01  7.58236e+00
       H -6.11070e+00 -1.12144e+01  7.28042e+00
       H -3.08075e+00 -1.10113e+01  7.13026e+00
       O  8.24328e+00 -4.77374e+00  7.55993e+00
       H  6.70739e+00 -3.79029e+00  7.24286e+00
       H -7.42554e+00 -3.76651e+00  7.11590e+00
       O  8.21138e+00 -9.53235e+00  6.13149e+00
       H  8.41999e+00 -9.32999e+00  4.43099e+00
       H  8.36304e+00 -7.66026e+00  6.71097e+00
       O -4.56489e+00 -2.12645e+00  6.11673e+00
       H -4.31842e+00 -2.34102e+00  4.34625e+00
       H -4.55762e+00 -3.53145e-01  6.61287e+00
       O -8.20761e+00  4.79005e+00 -1.31985e+01
       H  7.37412e+00  3.75474e+00 -1.35527e+01
       H -6.65481e+00  3.75130e+00 -1.34941e+01
       O -3.96620e+00  1.21391e+01 -1.31741e+01
       H -5.38320e+00  1.11282e+01 -1.34692e+01
       H -2.28418e+00  1.10764e+01 -1.33467e+01
       O -3.96953e+00  2.17971e+00 -7.64015e-01
       H -3.98843e+00  4.93780e-01 -2.68272e-01
       H -4.08299e+00  2.16765e+00 -2.58363e+00
       O -8.21982e+00  9.48878e+00 -7.81454e-01
       H -8.23366e+00  7.85884e+00 -2.67278e-01
       H -8.26128e+00  9.69221e+00 -2.65174e+00
       O -4.50450e+00  2.60064e+00 -6.24469e+00
       H -5.95739e+00  3.54840e+00 -6.39918e+00
       H -3.03007e+00  3.72564e+00 -6.72967e+00
       O  8.20173e+00  9.92935e+00 -6.27719e+00
       H  6.47097e+00  1.08782e+01 -6.58720e+00
       H -7.24433e+00  1.10671e+01 -6.68958e+00
       O  8.20343e+00  5.15361e+00 -7.68174e+00
       H  8.46174e+00  5.36943e+00 -9.50736e+00
       H  8.17410e+00  6.93662e+00 -7.02546e+00
       O -4.54200e+00  1.25508e+01 -7.72028e+00
       H -4.34207e+00  1.26093e+01 -9.49250e+00
       H -4.42782e+00  1.44220e+01 -7.13796e+00
       O -8.21498e+00  4.79680e+00  6.95253e-01
       H  7.30563e+00  3.66995e+00  1.39889e-01
       H -6.60441e+00  3.49323e+00  4.54737e-01
       O -3.94248e+00  1.21489e+01  6.70758e-01
       H -5.42792e+00  1.10718e+01  1.80762e-01
       H -2.50598e+00  1.11872e+01  1.99038e-01
       O -3.97542e+00  2.15125e+00  1.30181e+01
       H -4.05484e+00  3.06946e-01  1.35790e+01
       H -4.11316e+00  2.21673e+00  1.11221e+01
       O -8.23518e+00  9.53448e+00  1.30587e+01
       H -8.35529e+00  7.71591e+00  1.36607e+01
       H -8.33403e+00  9.39514e+00  1.10400e+01
       O -4.51646e+00  2.55457e+00  7.57073e+00
       H -6.15545e+00  3.54753e+00  7.31065e+00
       H -3.14551e+00  3.69080e+00  6.95223e+00
       O  8.19480e+00  9.93631e+00  7.60527e+00
       H  6.69279e+00  1.11463e+01  7.08322e+00
       H -7.24016e+00  1.10353e+01  7.11067e+00
       O  8.24982e+00  5.15638e+00  6.17815e+00
       H  8.38437e+00  5.33739e+00  4.35468e+00
       H  8.23835e+00  6.92193e+00  6.69195e+00
       O -4.55145e+00  1.25594e+01  6.16044e+00
       H -4.51741e+00  1.23955e+01  4.34811e+00
       H -4.45909e+00  1.41953e+01  6.64174e+00
       O  2.79713e-01 -9.89918e+00 -1.31612e+01
       H -1.22631e+00 -1.08997e+01 -1.36901e+01
       H  1.88413e+00 -1.09653e+01 -1.32958e+01
       O  4.52370e+00 -2.58526e+00 -1.31927e+01
       H  3.25399e+00 -3.62629e+00 -1.35604e+01
       H  5.93623e+00 -3.64769e+00 -1.35663e+01
       O  4.54307e+00 -1.25320e+01 -8.24114e-01
       H  4.45846e+00 -1.43760e+01 -2.07429e-01
       H  4.34042e+00 -1.25808e+01 -2.71221e+00
       O  3.00674e-01 -5.24261e+00 -7.91525e-01
       H  2.62031e-01 -6.97999e+00 -2.69671e-01
       H  8.34897e-02 -5.25134e+00 -2.49282e+00
       O  3.98951e+00 -1.21150e+01 -6.22893e+00
       H  2.32870e+00 -1.11936e+01 -6.53453e+00
       H  5.43799e+00 -1.10646e+01 -6.75870e+00
       O -2.89855e-01 -4.77920e+00 -6.27362e+00
       H -1.71812e+00 -3.81829e+00 -6.55482e+00
       H  1.07463e+00 -3.73551e+00 -6.77623e+00
       O -2.63887e-01 -9.52738e+00 -7.67112e+00
       H -5.80697e-02 -9.41232e+00 -9.59827e+00
       H -1.48649e-01 -7.72896e+00 -7.32109e+00
       O  3.96768e+00 -2.17439e+00 -7.70029e+00
       H  4.08477e+00 -2.20579e+00 -9.52461e+00
       H  3.86227e+00 -1.88436e-01 -7.22213e+00
       O  2.49856e-01 -9.89742e+00  5.92676e-01
       H -1.09275e+00 -1.08589e+01  9.87080e-02
       H  1.83960e+00 -1.10826e+01  2.99795e-01
       O  4.54529e+00 -2.57836e+00  6.61440e-01
       H  2.95886e+00 -3.51555e+00  1.41653e-01
       H  6.00664e+00 -3.63181e+00  3.25757e-01
       O  4.55870e+00 -1.25454e+01  1.30836e+01
       H  4.52576e+00 -1.43778e+01  1.34820e+01
       H  4.55779e+00 -1.25073e+01  1.12842e+01
       O  2.90600e-01 -5.20088e+00  1.30627e+01
       H  2.17221e-01 -7.29565e+00  1.37067e+01
       H  3.48851e-01 -5.24486e+00  1.11454e+01
       O  3.93012e+00 -1.21235e+01  7.58459e+00
       H  2.30185e+00 -1.12708e+01  7.31790e+00
       H  5.63634e+00 -1.10910e+01  7.24579e+00
       O -2.08414e-01 -4.78716e+00  7.57860e+00
       H -1.89423e+00 -3.78935e+00  7.05100e+00
       H  9.70566e-01 -3.66704e+00  7.23718e+00
       O -3.08943e-01 -9.57460e+00  6.16482e+00
       H -8.30748e-02 -9.48424e+00  4.40320e+00
       H -1.76929e-01 -7.68364e+00  6.78519e+00
       O  3.97225e+00 -2.15602e+00  6.14558e+00
       H  4.12744e+00 -2.28669e+00  4.33283e+00
       H  4.03769e+00 -3.87999e-01  6.77878e+00
       O  2.76946e-01  4.78674e+00 -1.31123e+01
       H -1.11776e+00  3.81140e+00 -1.36877e+01
       H  1.78666e+00  3.90208e+00 -1.35588e+01
       O  4.52536e+00  1.21416e+01 -1.31918e+01
       H  2.91018e+00  1.10643e+01 -1.34347e+01
       H  6.06282e+00  1.10035e+01 -1.33131e+01
       O  4.53561e+00  2.16611e+00 -7.71880e-01
       H  4.63346e+00  3.29736e-01 -2.36403e-01
       H  4.25132e+00  2.26278e+00 -2.41389e+00
       O  2.70402e-01  9.53652e+00 -7.64191e-01
       H  2.42926e-01  7.62063e+00 -2.53997e-01
       H  1.34634e-01  9.56226e+00 -2.62192e+00
       O  3.99455e+00  2.58902e+00 -6.22355e+00
       H  2.42181e+00  3.46060e+00 -6.68395e+00
       H  5.52296e+00  3.59299e+00 -6.58143e+00
       O -2.53345e-01  9.90054e+00 -6.27126e+00
       H -1.86124e+00  1.08162e+01 -6.47063e+00
       H  1.24437e+00  1.10273e+01 -6.69098e+00
       O -3.17652e-01  5.18327e+00 -7.69915e+00
       H -1.76834e-01  5.38051e+00 -9.50411e+00
       H -2.07035e-01  7.10709e+00 -7.11723e+00
       O  3.94308e+00  1.25392e+01 -7.73330e+00
       H  4.25381e+00  1.26098e+01 -9.54941e+00
       H  3.80468e+00  1.44092e+01 -7.10537e+00
       O  2.62365e-01  4.79382e+00  6.91677e-01
       H -1.22036e+00  3.83497e+00  3.10255e-01
       H  1.80955e+00  3.77414e+00  3.66108e-01
       O  4.50767e+00  1.21747e+01  6.71914e-01
       H  2.94683e+00  1.11397e+01  2.21581e-01
       H  6.19192e+00  1.11432e+01  2.29852e-01
       O  4.54352e+00  2.15225e+00  1.30634e+01
       H  4.64131e+00  1.85253e-01  1.37404e+01
       H  4.26950e+00  2.05620e+00  1.12491e+01
       O  2.85918e-01  9.53249e+00  1.30463e+01
       H  3.82758e-01  7.56464e+00  1.36908e+01
       H -4.06007e-02  9.55400e+00  1.13457e+01
       O  3.96649e+00  2.59449e+00  7.59104e+00
       H  2.46561e+00  3.48327e+00  7.16188e+00
       H  5.64551e+00  3.49888e+00  7.10208e+00
       O -3.13003e-01  9.94456e+00  7.53884e+00
       H -1.72516e+00  1.09841e+01  7.18005e+00
       H  1.25335e+00  1.09391e+01  7.22085e+00
       O -2.43845e-01  5.21787e+00  6.11371e+00
       H -1.44764e-01  5.05022e+00  4.37435e+00
       H -2.96787e-01  6.91201e+00  6.71267e+00
       O  3.95978e+00  1.25132e+01  6.12948e+00
       H  4.12626e+00  1.25930e+01  4.21725e+00
       H  3.84076e+00  1.43485e+01  6.58492e+00
192
# CELL(abcABC):   16.99620    29.43815    27.67315    90.00000    90.00000    90.00000  Step:          20  Bead:      21 positions{atomic_unit}  cell{atomic_unit}
       O -8.24067e+00 -9.95836e+00 -1.30864e+01
       H  7.30973e+00 -1.09085e+01 -1.35838e+01
       H -6.75884e+00 -1.10082e+01 -1.35042e+01
       O -3.97721e+00 -2.56931e+00 -1.31980e+01
       H -5.45848e+00 -3.77961e+00 -1.37286e+01
       H -2.41118e+00 -3.69395e+00 -1.34457e+01
       O -3.92123e+00 -1.25399e+01 -7.61072e-01
       H -3.77993e+00 -1.43118e+01 -3.34002e-01
       H -4.16116e+00 -1.26451e+01 -2.54744e+00
       O -8.17244e+00 -5.22229e+00 -7.49686e-01
       H -8.24192e+00 -6.98672e+00  1.17406e-03
       H -8.71696e+00 -5.18726e+00 -2.36258e+00
       O -4.49601e+00 -1.21643e+01 -6.30240e+00
       H -6.01263e+00 -1.09619e+01 -6.96542e+00
       H -2.97621e+00 -1.09788e+01 -6.74052e+00
       O  8.21788e+00 -4.75455e+00 -6.35902e+00
       H  6.74466e+00 -4.08050e+00 -6.48314e+00
       H -7.23504e+00 -3.76149e+00 -6.84841e+00
       O  8.12212e+00 -9.50861e+00 -7.64991e+00
       H  8.27414e+00 -9.43728e+00 -9.64489e+00
       H  7.97870e+00 -7.80454e+00 -7.21754e+00
       O -4.56178e+00 -2.18415e+00 -7.72643e+00
       H -4.21230e+00 -2.03460e+00 -9.60150e+00
       H -4.75502e+00 -4.92779e-01 -7.08935e+00
       O -8.26841e+00 -9.91215e+00  6.38023e-01
       H  7.45335e+00 -1.11091e+01  8.62506e-02
       H -7.15081e+00 -1.09699e+01  2.77623e-01
       O -3.99549e+00 -2.51649e+00  6.78458e-01
       H -5.42632e+00 -3.78569e+00  2.35220e-01
       H -2.51090e+00 -3.70680e+00  1.61699e-01
       O -3.92816e+00 -1.25573e+01  1.30689e+01
       H -3.83858e+00 -1.45224e+01  1.37238e+01
       H -4.15203e+00 -1.25123e+01  1.12860e+01
       O -8.20750e+00 -5.20004e+00  1.31006e+01
       H -8.11170e+00 -7.22077e+00  1.35245e+01
       H -8.63120e+00 -5.29238e+00  1.10600e+01
       O -4.49623e+00 -1.21692e+01  7.57291e+00
       H -6.16851e+00 -1.11633e+01  7.26947e+00
       H -3.18571e+00 -1.09974e+01  7.18732e+00
       O  8.24414e+00 -4.77746e+00  7.53220e+00
       H  6.51111e+00 -3.86027e+00  7.17740e+00
       H -7.21985e+00 -3.86279e+00  6.92367e+00
       O  8.22164e+00 -9.50671e+00  6.15456e+00
       H  8.39636e+00 -9.24500e+00  4.39966e+00
       H  8.48396e+00 -7.65092e+00  6.68539e+00
       O -4.51752e+00 -2.09779e+00  6.13598e+00
       H -4.34503e+00 -2.41601e+00  4.24992e+00
       H -4.54316e+00 -2.91032e-01  6.68374e+00
       O -8.21344e+00  4.79979e+00 -1.31743e+01
       H  7.36885e+00  3.86945e+00 -1.35073e+01
       H -6.63632e+00  3.55608e+00 -1.34324e+01
       O -3.96975e+00  1.21888e+01 -1.31642e+01
       H -5.47733e+00  1.13568e+01 -1.33924e+01
       H -2.18656e+00  1.10326e+01 -1.33610e+01
       O -3.95154e+00  2.18630e+00 -7.50869e-01
       H -4.02435e+00  5.08471e-01 -2.74491e-01
       H -4.19870e+00  2.05581e+00 -2.63699e+00
       O -8.24148e+00  9.48532e+00 -7.32670e-01
       H -8.26018e+00  7.74876e+00 -2.05819e-01
       H -8.19348e+00  9.59362e+00 -2.78064e+00
       O -4.51634e+00  2.60791e+00 -6.29246e+00
       H -6.01104e+00  3.49977e+00 -6.45837e+00
       H -2.93694e+00  3.79851e+00 -6.65806e+00
       O  8.19168e+00  9.94447e+00 -6.29745e+00
       H  6.44919e+00  1.08504e+01 -6.61376e+00
       H -7.04118e+00  1.11248e+01 -6.68580e+00
       O  8.20527e+00  5.19042e+00 -7.66767e+00
       H  8.56968e+00  5.36993e+00 -9.50974e+00
       H  8.24555e+00  6.99989e+00 -6.70490e+00
       O -4.50522e+00  1.25603e+01 -7.75461e+00
       H -4.38067e+00  1.24624e+01 -9.66163e+00
       H -4.41657e+00  1.44960e+01 -7.29485e+00
       O -8.21393e+00  4.77850e+00  6.95749e-01
       H  7.37830e+00  3.60934e+00  1.83606e-01
       H -6.69413e+00  3.47325e+00  4.45045e-01
       O -3.95232e+00  1.21109e+01  6.57243e-01
       H -5.52502e+00  1.10134e+01  2.99930e-01
       H -2.46299e+00  1.11510e+01  3.65018e-01
       O -3.95724e+00  2.17659e+00  1.30177e+01
       H -4.02672e+00  2.33346e-01  1.34490e+01
       H -4.21313e+00  2.17877e+00  1.12004e+01
       O -8.22572e+00  9.51079e+00  1.30928e+01
       H -8.32982e+00  7.66225e+00  1.36248e+01
       H -8.30487e+00  9.41695e+00  1.10540e+01
       O -4.53507e+00  2.51374e+00  7.54886e+00
       H -6.06909e+00  3.47051e+00  7.25102e+00
       H -3.20534e+00  3.51501e+00  7.01460e+00
       O  8.17859e+00  9.95185e+00  7.60242e+00
       H  6.78088e+00  1.11514e+01  6.98110e+00
       H -7.36761e+00  1.08829e+01  7.26300e+00
       O  8.21618e+00  5.14860e+00  6.17905e+00
       H  8.38936e+00  5.28630e+00  4.33248e+00
       H  8.11490e+00  6.94220e+00  6.68265e+00
       O -4.55523e+00  1.25510e+01  6.15367e+00
       H -4.56509e+00  1.24489e+01  4.34075e+00
       H -4.57570e+00  1.43186e+01  6.59783e+00
       O  2.98626e-01 -9.89055e+00 -1.31718e+01
       H -1.38851e+00 -1.07833e+01 -1.36514e+01
       H  1.83744e+00 -1.07576e+01 -1.31713e+01
       O  4.51372e+00 -2.60227e+00 -1.31916e+01
       H  3.27546e+00 -3.68239e+00 -1.36865e+01
       H  5.93912e+00 -3.69445e+00 -1.36728e+01
       O  4.60170e+00 -1.24756e+01 -8.44558e-01
       H  4.50170e+00 -1.42671e+01 -2.52700e-01
       H  4.33440e+00 -1.26850e+01 -2.68238e+00
       O  3.26861e-01 -5.26293e+00 -8.34057e-01
       H  2.26595e-01 -6.98459e+00 -3.24075e-01
       H  2.29103e-01 -5.21850e+00 -2.53021e+00
       O  3.95022e+00 -1.21075e+01 -6.20554e+00
       H  2.37766e+00 -1.12066e+01 -6.66036e+00
       H  5.60273e+00 -1.09846e+01 -6.86985e+00
       O -3.19099e-01 -4.78429e+00 -6.32170e+00
       H -1.91273e+00 -3.80001e+00 -6.57542e+00
       H  1.16581e+00 -3.74949e+00 -6.89928e+00
       O -2.45370e-01 -9.50258e+00 -7.68691e+00
       H -1.73727e-01 -9.40515e+00 -9.81282e+00
       H -3.11144e-01 -7.61239e+00 -7.41547e+00
       O  3.99056e+00 -2.18664e+00 -7.73623e+00
       H  4.11293e+00 -2.39515e+00 -9.37168e+00
       H  3.74038e+00 -1.88274e-01 -7.05995e+00
       O  2.44666e-01 -9.91906e+00  5.65975e-01
       H -1.04436e+00 -1.09094e+01 -9.06895e-02
       H  1.67136e+00 -1.11128e+01  3.62419e-01
       O  4.49319e+00 -2.58593e+00  6.09365e-01
       H  3.03887e+00 -3.65178e+00  5.88768e-02
       H  6.04989e+00 -3.62623e+00  3.31194e-01
       O  4.56716e+00 -1.25437e+01  1.30822e+01
       H  4.43121e+00 -1.43879e+01  1.34019e+01
       H  4.39600e+00 -1.25494e+01  1.11508e+01
       O  2.57484e-01 -5.21494e+00  1.30585e+01
       H  2.17424e-01 -7.19428e+00  1.36937e+01
       H  3.36521e-01 -5.29394e+00  1.10135e+01
       O  3.87073e+00 -1.21132e+01  7.59545e+00
       H  2.26927e+00 -1.13526e+01  7.49314e+00
       H  5.55715e+00 -1.09901e+01  7.18800e+00
       O -1.97765e-01 -4.79673e+00  7.60488e+00
       H -1.98887e+00 -3.66737e+00  7.25281e+00
       H  8.82391e-01 -3.72864e+00  7.15168e+00
       O -2.91328e-01 -9.58291e+00  6.14279e+00
       H -2.64984e-02 -9.61797e+00  4.25355e+00
       H -1.46435e-01 -7.62523e+00  6.72576e+00
       O  3.99682e+00 -2.15693e+00  6.15165e+00
       H  4.13089e+00 -2.26262e+00  4.23673e+00
       H  3.99730e+00 -5.02865e-01  6.82340e+00
       O  2.33655e-01  4.80313e+00 -1.31196e+01
       H -9.99088e-01  3.74689e+00 -1.37981e+01
       H  1.56000e+00  3.82141e+00 -1.36376e+01
       O  4.47916e+00  1.21551e+01 -1.32051e+01
       H  2.79327e+00  1.10092e+01 -1.34897e+01
       H  5.92504e+00  1.09930e+01 -1.31927e+01
       O  4.49544e+00  2.12437e+00 -7.73556e-01
       H  4.62535e+00  4.17329e-01 -1.58809e-01
       H  4.18551e+00  2.19287e+00 -2.46427e+00
       O  2.23919e-01  9.57047e+00 -7.43346e-01
       H  1.74156e-01  7.69662e+00 -2.35647e-01
       H  3.11011e-01  9.48407e+00 -2.60289e+00
       O  3.94059e+00  2.57755e+00 -6.22482e+00
       H  2.37184e+00  3.56601e+00 -6.76182e+00
       H  5.55493e+00  3.31608e+00 -6.56873e+00
       O -2.22069e-01  9.91062e+00 -6.28614e+00
       H -1.84986e+00  1.08388e+01 -6.40653e+00
       H  1.22308e+00  1.11358e+01 -6.59621e+00
       O -3.18572e-01  5.14212e+00 -7.68600e+00
       H -6.82158e-02  5.38185e+00 -9.65049e+00
       H -2.10116e-01  7.21966e+00 -7.02464e+00
       O  3.93113e+00  1.25764e+01 -7.72417e+00
       H  4.39684e+00  1.27004e+01 -9.64211e+00
       H  3.70771e+00  1.45544e+01 -6.97898e+00
       O  2.92510e-01  4.79009e+00  6.56125e-01
       H -1.28519e+00  3.82741e+00  2.77739e-01
       H  1.75266e+00  3.67349e+00  4.88024e-01
       O  4.47488e+00  1.21717e+01  6.52264e-01
       H  3.00221e+00  1.10209e+01  3.19258e-01
       H  6.14388e+00  1.09733e+01  1.47307e-01
       O  4.50315e+00  2.19142e+00  1.30026e+01
       H  4.61833e+00  3.44390e-01  1.36484e+01
       H  4.31200e+00  2.05855e+00  1.12052e+01
       O  2.98791e-01  9.57479e+00  1.30416e+01
       H  4.69172e-01  7.44595e+00  1.37999e+01
       H  6.87242e-02  9.56596e+00  1.13396e+01
       O  3.93996e+00  2.56912e+00  7.60829e+00
       H  2.46589e+00  3.40130e+00  7.23829e+00
       H  5.52577e+00  3.36256e+00  7.17242e+00
       O -3.87336e-01  9.92552e+00  7.57077e+00
       H -1.67923e+00  1.11012e+01  7.31764e+00
       H  1.32348e+00  1.09189e+01  7.13720e+00
       O -2.30126e-01  5.24373e+00  6.09505e+00
       H -1.12679e-01  5.06949e+00  4.40440e+00
       H -3.00737e-01  6.80450e+00  6.76674e+00
       O  3.92913e+00  1.24955e+01  6.15381e+00
       H  4.10136e+00  1.27742e+01  4.14809e+00
       H  3.82121e+00  1.43393e+01  6.52341e+00
192
# CELL(abcABC):   16.99620    29.43815    27.67315    90.00000    90.00000    90.00000  Step:          30  Bead:      21 positions{atomic_unit}  cell{atomic_unit}
       O -8.23017e+00 -9.99271e+00 -1.30580e+01
       H  7.33608e+00 -1.10314e+01 -1.35150e+01
       H -6.61674e+00 -1.08964e+01 -1.35105e+01
       O -3.94103e+00 -2.53918e+00 -1.31694e+01
       H -5.54594e+00 -3.69601e+00 -1.35488e+01
       H -2.45865e+00 -3.64455e+00 -1.36386e+01
       O -3.92561e+00 -1.25229e+01 -7.50658e-01
       H -3.83173e+00 -1.42164e+01 -3.10721e-01
       H -4.11978e+00 -1.26885e+01 -2.52661e+00
       O -8.18748e+00 -5.24167e+00 -7.32930e-01
       H -8.09474e+00 -6.88577e+00  2.76288e-02
       H -8.71190e+00 -5.02123e+00 -2.54302e+00
       O -4.49678e+00 -1.21828e+01 -6.30238e+00
       H -6.02098e+00 -1.08465e+01 -7.05236e+00
       H -2.78052e+00 -1.09177e+01 -6.49806e+00
       O  8.21921e+00 -4.76668e+00 -6.33735e+00
       H  6.61440e+00 -4.12627e+00 -6.48980e+00
       H -7.29911e+00 -3.76644e+00 -6.91065e+00
       O  8.13686e+00 -9.50541e+00 -7.65668e+00
       H  8.22915e+00 -9.31109e+00 -9.55672e+00
       H  8.15420e+00 -7.82964e+00 -7.16960e+00
       O -4.53500e+00 -2.15786e+00 -7.66246e+00
       H -3.96050e+00 -2.03528e+00 -9.40072e+00
       H -4.89480e+00 -5.19706e-01 -6.99974e+00
       O -8.28990e+00 -9.90898e+00  6.26164e-01
       H  7.38202e+00 -1.11463e+01  1.27168e-01
       H -7.24903e+00 -1.10858e+01  2.35914e-01
       O -3.99218e+00 -2.49330e+00  7.12296e-01
       H -5.34407e+00 -3.86982e+00  3.10919e-01
       H -2.50155e+00 -3.53531e+00  2.98590e-01
       O -3.92193e+00 -1.25546e+01  1.30982e+01
       H -3.83559e+00 -1.46931e+01  1.37596e+01
       H -4.16816e+00 -1.25666e+01  1.13074e+01
       O -8.21230e+00 -5.17104e+00  1.30842e+01
       H -8.12352e+00 -7.17061e+00  1.34619e+01