192
# CELL(abcABC):   16.99620    29.43815    27.67315    90.00000    90.00000    90.00000  Step:           0  Bead:      25 velocities{atomic_unit}  cell{atomic_unit}
       O  3.58079e-04 -4.10328e-04  8.84783e-04
       H -4.83643e-03 -1.26365e-03 -5.20150e-03
       H -2.89038e-04 -3.09421e-03  6.05861e-04
       O  9.31352e-04  1.18287e-03 -7.83662e-04
       H -1.91658e-03 -1.81461e-03  2.44378e-03
       H -2.76619e-03  1.69675e-03  6.76523e-03
       O -1.04323e-03 -8.82597e-04 -9.83491e-04
       H -3.41374e-04 -3.40549e-03 -1.81898e-03
       H -3.41195e-03  2.07146e-03  5.05324e-04
       O -7.61784e-04 -1.22862e-03  1.77221e-05
       H  3.76018e-03  2.94052e-03 -1.82580e-03
       H -1.20883e-03 -3.52603e-04  9.81838e-04
       O -2.43536e-04 -1.78846e-03  4.04156e-04
       H  1.02615e-03 -2.56698e-03 -4.47039e-03
       H -1.83897e-03 -1.99998e-03  5.12896e-03
       O  3.59691e-04 -1.75975e-03 -1.11603e-03
       H -3.62195e-03 -4.86951e-03  4.88004e-03
       H  4.99101e-03  3.92309e-04 -8.65499e-04
       O  5.18389e-04  4.69579e-04 -1.92378e-03
       H  1.75212e-03 -7.86435e-03  1.62961e-03
       H  1.87655e-03  1.56060e-03  3.02770e-03
       O  3.42643e-04 -7.98811e-04 -7.45648e-04
       H  3.27081e-03  1.30840e-04  1.15982e-03
       H  1.29149e-03  6.67332e-03  8.95302e-05
       O -9.80110e-04  6.09829e-04  3.09975e-04
       H  4.52874e-03 -4.91653e-03  5.34136e-03
       H  2.96556e-03  2.11547e-03  2.68039e-03
       O  3.53372e-04 -8.91289e-04 -1.19572e-04
       H  5.19878e-03 -4.90790e-04 -4.55926e-03
       H  5.55545e-03  5.33792e-03  4.51487e-03
       O -2.74114e-03  7.69598e-04 -7.11479e-04
       H  2.81309e-03 -3.74897e-04  7.16380e-03
       H -7.15148e-03  3.90780e-03 -5.15720e-05
       O  6.81717e-04  1.08709e-03 -3.29401e-04
       H  2.82930e-03 -2.02682e-03  6.42585e-04
       H -4.26932e-03  5.24136e-03 -3.08522e-03
       O -1.07240e-03 -9.09117e-04  9.62624e-04
       H  8.10089e-04  2.75886e-04 -1.06981e-03
       H  2.55500e-03  3.53890e-03 -8.76763e-03
       O -2.01135e-04 -1.18272e-03  1.58934e-03
       H  2.85402e-03  1.28751e-03  1.39492e-03
       H  2.14732e-03  2.52184e-03  3.16313e-03
       O  5.29083e-04 -1.00515e-03 -1.17423e-04
       H  2.14500e-03  3.83929e-03  1.27289e-03
       H -8.42591e-04  1.53346e-03 -1.26998e-03
       O  1.73324e-03 -5.70207e-04  2.05221e-03
       H  5.46307e-03 -5.49387e-03 -3.67776e-03
       H  3.85605e-04 -1.65927e-03  2.45358e-03
       O  4.01389e-04 -2.26457e-03  2.21764e-04
       H -4.52802e-03  1.82667e-03  2.09835e-03
       H -1.07683e-03 -4.07566e-03 -8.32577e-04
       O  4.97760e-04 -1.30457e-04 -2.09587e-04
       H -3.18279e-04 -7.42903e-03  1.08915e-03
       H  6.54129e-04  4.03383e-03  4.26711e-03
       O -2.02582e-04  6.97366e-04 -7.75922e-04
       H  2.52967e-03 -5.45018e-04 -1.02076e-02
       H  5.26532e-03 -3.37045e-03 -4.17239e-03
       O  6.99175e-04 -9.51103e-04  1.72873e-03
       H  1.35958e-03  3.11929e-03  7.09744e-04
       H -5.44472e-03  3.91919e-03 -1.41996e-03
       O  1.69500e-04  6.70361e-04  4.27403e-05
       H  1.04670e-03 -1.46485e-03 -1.39740e-03
       H -2.11430e-03  3.75961e-03 -7.11957e-04
       O  5.25436e-04 -1.56299e-03  6.89598e-04
       H -1.06046e-03  2.91390e-03  7.68099e-04
       H -9.50857e-03 -3.06150e-03 -1.88625e-03
       O -1.44747e-03  1.15931e-03  6.53420e-04
       H -4.06535e-03  1.30495e-03 -6.65502e-04
       H  1.10523e-03 -3.73639e-03  1.22119e-03
       O -2.24500e-03 -2.20087e-04 -9.74504e-04
       H  9.49837e-04 -2.95511e-03 -1.17903e-03
       H -7.80109e-04  8.40105e-03  3.73106e-05
       O  4.60767e-04  4.04259e-05 -4.04579e-04
       H  6.27177e-03 -4.86192e-03 -2.97064e-03
       H  6.31808e-03  2.69507e-03 -6.58133e-04
       O -1.20578e-03 -8.81682e-04 -3.47950e-04
       H  4.92680e-03  8.69456e-03  2.35774e-03
       H  2.03150e-03  4.37331e-03  2.26086e-03
       O  1.56790e-03  1.49355e-04  8.09084e-04
       H  4.26013e-03 -1.99795e-03  4.90559e-03
       H -9.42061e-03  7.45892e-05 -1.27984e-03
       O  2.00370e-04 -1.56548e-03  4.46980e-04
       H  4.13989e-03  4.44760e-04 -6.85725e-03
       H -2.76663e-04 -5.77729e-03  2.46405e-03
       O  1.00392e-03  4.76809e-06 -1.68666e-04
       H -8.79004e-03  3.75523e-03  2.24077e-03
       H  2.04597e-03  1.19275e-03 -8.82021e-04
       O -7.04611e-04  3.95805e-04 -9.27714e-06
       H -6.01739e-04  6.59818e-03 -2.87656e-03
       H  9.06232e-04  4.22385e-03 -3.30587e-03
       O -1.30065e-03 -1.44838e-03 -1.02626e-03
       H  9.68432e-03  7.99000e-03  7.18387e-05
       H -1.97007e-03  3.31756e-04 -9.61449e-03
       O  1.03563e-03  6.50681e-04 -1.22958e-03
       H  7.65964e-03 -2.33825e-03  1.31324e-03
       H  9.31021e-04  2.19396e-03 -4.80927e-03
       O -4.65394e-04  1.63315e-03 -8.05000e-04
       H  7.82873e-03 -3.33219e-04  2.83527e-03
       H  1.87157e-03  2.17285e-03  3.32268e-03
       O  1.55338e-03 -1.22067e-03 -1.83060e-03
       H  3.49167e-03  8.43679e-04 -1.27088e-03
       H -4.50628e-03  1.05685e-03  2.16055e-03
       O -3.93960e-04 -7.44898e-04  2.07953e-04
       H  9.69051e-04 -3.66414e-03  3.59731e-03
       H -1.52841e-03  3.74294e-04 -2.78657e-03
       O  4.85702e-04 -1.24205e-03  2.27571e-03
       H  6.95396e-03 -9.12337e-05 -2.75635e-04
       H -4.27937e-03  2.96560e-03  3.06044e-03
       O -1.68714e-04 -7.91963e-04 -3.42734e-04
       H  1.70257e-03 -4.52904e-03 -3.41994e-04
       H  1.88537e-03  3.33451e-04  2.34670e-03
       O -7.92864e-04  3.97695e-04 -8.57888e-04
       H -5.01720e-03  5.20492e-04 -7.91471e-03
       H  4.76152e-03  3.68563e-03  5.00070e-03
       O  6.61025e-04 -2.63998e-04 -1.70686e-04
       H -4.02325e-03  3.71920e-03 -4.14763e-05
       H -6.44691e-03  1.37041e-03 -1.44796e-03
       O -1.17585e-03  1.10378e-03 -3.69778e-04
       H  3.95333e-03  2.22675e-04 -2.61559e-03
       H  2.49231e-03  2.95873e-03  5.69169e-03
       O  8.61350e-05  1.15136e-03 -1.49373e-03
       H -1.36747e-03 -4.10492e-03  2.15877e-03
       H  2.51986e-03 -7.47977e-03  5.24497e-03
       O  3.93387e-04  1.10708e-03 -1.35474e-04
       H -9.11296e-04  1.19109e-03 -3.91151e-03
       H  1.92633e-03 -1.29730e-03  2.93642e-03
       O -1.88819e-04 -1.03111e-03  3.81089e-04
       H -3.88546e-03  1.61745e-03 -6.43959e-03
       H  1.44095e-03  4.01477e-03  1.20712e-03
       O -1.29873e-03 -6.13537e-04  1.68220e-04
       H -1.56804e-03 -4.59716e-04 -4.68191e-03
       H  2.28859e-03 -6.84729e-03  2.87019e-03
       O -3.31117e-04 -3.79729e-05 -3.01639e-04
       H  8.95789e-04  4.35242e-04 -8.29256e-04
       H -6.63563e-04  4.74991e-03  1.51284e-03
       O -4.40731e-04 -8.87018e-04  8.79845e-04
       H  1.95891e-03  3.66350e-04 -3.12895e-03
       H  8.30276e-04  2.54234e-03  3.77323e-03
       O  1.14443e-03 -2.91375e-04  8.92046e-04
       H -2.69742e-03  1.90952e-03 -7.87366e-03
       H -6.11268e-04  2.35118e-03 -2.31855e-04
       O -1.21929e-03  1.44110e-03 -5.59531e-04
       H -3.83199e-03 -3.61940e-03 -9.60005e-03
       H -2.48814e-03 -6.61543e-03  7.61123e-03
       O  5.49667e-04  6.43505e-04 -1.77927e-04
       H  7.55112e-03  7.48857e-03  2.24805e-03
       H  6.17297e-03  2.69057e-03 -2.86415e-03
       O -8.92288e-04  8.26567e-05 -1.05007e-03
       H  9.68652e-05  4.08234e-03  4.89179e-03
       H -7.62016e-04  6.21470e-03 -3.10198e-03
       O  1.89138e-04  1.26429e-03 -1.54740e-04
       H  2.65587e-04 -4.79944e-03 -5.46081e-03
       H -6.36759e-03 -3.97189e-03  2.29952e-03
       O -1.99864e-03  3.65271e-04  1.20840e-03
       H  4.76444e-03  7.17397e-05  2.65957e-03
       H  6.63517e-04  1.60785e-03  1.95894e-03
       O -1.39829e-03 -8.47464e-04 -8.84255e-04
       H -2.00052e-03 -9.88996e-04  1.19347e-03
       H  5.11603e-04  5.87956e-03  2.10892e-03
       O  8.79205e-04  1.95970e-03  5.62824e-04
       H  2.27278e-03  5.81510e-03 -8.33032e-04
       H -4.77083e-03 -9.04598e-04  2.42437e-03
       O -7.55896e-04  1.87279e-04  1.20856e-03
       H  1.32002e-03  1.62496e-03  2.75889e-03
       H -5.18137e-04 -1.71043e-03  3.61339e-04
       O -1.23612e-03  1.34753e-03 -1.61632e-04
       H  4.02613e-03 -2.64063e-03  1.64351e-04
       H -1.38525e-03 -1.43968e-03 -3.38261e-03
       O  8.79962e-04 -8.86803e-04 -7.43396e-04
       H  1.30756e-03 -1.92543e-03  5.02083e-04
       H  1.07729e-03  6.28547e-03 -3.92279e-03
       O  9.30544e-04 -1.03169e-03 -6.02390e-04
       H -1.65770e-03  2.79450e-03 -1.87620e-03
       H  5.02136e-03  1.09772e-03 -1.10601e-03
       O -3.13676e-04  6.70284e-04  8.95271e-04
       H -4.80737e-04 -8.00745e-04 -1.49139e-04
       H  4.95659e-03  1.37995e-03  5.03971e-03
       O -2.19731e-03  1.51758e-03 -6.34752e-04
       H  7.12690e-03  7.32148e-03  4.81559e-03
       H  7.70972e-04  3.67772e-03 -3.25689e-03
       O -2.97095e-04 -1.81419e-03  1.17520e-03
       H  7.63135e-03 -2.99757e-03  5.99795e-04
       H -3.26564e-03  4.97701e-03 -3.58396e-03
       O  1.91120e-04 -2.88417e-04 -3.99311e-04
       H -1.63776e-03  4.35027e-03  4.98604e-03
       H -1.48500e-03 -5.17728e-04  5.21221e-03
       O -2.00872e-04 -5.58138e-04 -2.96682e-04
       H -2.91339e-03  2.91020e-03  4.06450e-04
       H  4.98542e-03  3.33617e-03  1.24742e-03
       O  2.25918e-04 -1.07542e-04 -2.56986e-04
       H -7.58723e-03 -1.87325e-04 -8.58611e-04
       H  1.57943e-03 -1.40493e-03  2.09515e-03
192
# CELL(abcABC):   16.99620    29.43815    27.67315    90.00000    90.00000    90.00000  Step:          10  Bead:      25 velocities{atomic_unit}  cell{atomic_unit}
       O -1.16685e-03  3.08833e-04  1.16910e-06
       H -4.62113e-03 -4.35845e-03  3.16222e-03
       H -8.12176e-03 -1.37866e-03  5.32324e-03
       O  1.26585e-03  1.35582e-03 -4.91092e-05
       H -3.67670e-03 -2.74114e-03  6.57645e-03
       H -2.61454e-04 -1.31172e-04 -6.49713e-04
       O  2.15156e-03  1.81162e-03 -1.14800e-03
       H -2.55522e-03  5.67949e-03 -3.97388e-03
       H -1.58954e-03  2.55507e-03  2.96980e-03
       O -1.63174e-03 -7.78843e-04 -1.99457e-04
       H  2.60754e-03  7.78636e-04 -1.61840e-03
       H  4.19470e-03  1.71916e-03 -7.99964e-03
       O -9.83175e-04  4.79515e-04 -3.95348e-04
       H -4.27196e-03  9.88389e-04  1.74014e-03
       H  5.05261e-03  2.42647e-04  2.08908e-04
       O  7.14059e-04 -3.50801e-04 -1.57028e-05
       H  1.94090e-04 -5.53008e-03 -3.55452e-03
       H -3.48719e-03 -3.08091e-05  5.94266e-03
       O -2.68673e-04  7.36877e-05 -1.56767e-04
       H  2.93874e-05 -1.23355e-03  7.23678e-04
       H -3.06075e-03 -6.94324e-04  3.68443e-04
       O  1.70064e-03  2.10845e-03  1.11439e-04
       H  8.37496e-03 -4.86671e-03 -3.40040e-04
       H -4.84759e-03 -2.46618e-03  5.50148e-03
       O -1.08708e-03  1.81009e-04 -9.01727e-04
       H -2.47362e-03  1.09665e-05 -1.59299e-03
       H  2.07115e-03 -1.20110e-03  6.17538e-04
       O  7.30058e-04  4.35883e-04 -4.21636e-04
       H  1.00421e-04 -4.97286e-03 -3.08169e-04
       H -9.26916e-04  1.29368e-03 -2.67455e-03
       O -3.03469e-04  1.46391e-04  4.78681e-04
       H -5.22253e-03  1.10927e-03 -1.32052e-03
       H -5.24338e-03 -2.52319e-04 -2.55219e-03
       O -2.75988e-04 -1.27020e-03  1.27376e-04
       H  5.87443e-04 -5.57983e-03 -4.24673e-03
       H  5.97813e-03  3.44512e-03 -7.36072e-04
       O  5.82500e-04  1.20132e-03  1.23582e-03
       H -6.47838e-03 -4.00319e-03  2.89283e-04
       H -2.66203e-03  4.62710e-04  2.61093e-03
       O  4.01411e-04 -1.03775e-03  3.26567e-04
       H  2.73257e-03  8.60269e-04 -3.20538e-04
       H  3.25825e-03 -3.93784e-03  2.85720e-03
       O  4.03208e-04  1.25406e-04 -1.71662e-03
       H  3.87262e-03 -4.17861e-03 -1.22637e-03
       H  1.16152e-04 -6.29983e-03  3.10481e-03
       O  1.34397e-03  4.45561e-04  5.68750e-04
       H  1.28926e-03 -5.79034e-03 -2.89541e-03
       H  8.66571e-05  1.66974e-03 -3.14845e-03
       O -4.09335e-04 -6.22789e-04 -1.45512e-03
       H  2.61615e-03  2.02186e-03 -2.61852e-03
       H -5.64261e-03  3.06442e-03  2.36118e-03
       O -1.26849e-03 -3.32526e-04  8.56987e-05
       H -3.05049e-04 -1.49738e-03 -4.52059e-03
       H -1.85691e-03  2.59700e-03  2.22910e-03
       O  7.35721e-04 -2.15027e-03 -1.56109e-03
       H -2.84263e-03 -3.96977e-03 -5.28923e-04
       H  1.00434e-02  7.62407e-03 -1.88463e-03
       O  5.47152e-04  1.67048e-04 -6.60351e-04
       H  6.84559e-03 -1.47355e-04 -2.85996e-03
       H  3.37686e-04  1.11812e-03 -9.61687e-04
       O -2.32690e-04 -8.72539e-04  7.45702e-04
       H  1.88798e-03  3.35344e-03 -4.26432e-03
       H  1.13075e-03  1.80037e-03  4.06876e-03
       O -2.33029e-03 -1.43229e-03  2.11096e-04
       H -4.58144e-03 -3.01880e-03 -8.08964e-04
       H -2.02195e-03  1.43024e-03  6.81232e-03
       O  2.17857e-03 -8.75523e-04  5.34251e-04
       H  4.70527e-03  1.18439e-03  1.45368e-03
       H -7.26554e-05  2.79463e-03  9.17626e-03
       O  4.17778e-04 -5.33514e-05  7.88960e-04
       H  2.26589e-03 -1.34467e-03 -1.81022e-03
       H -1.40788e-03 -5.38430e-03  7.08203e-03
       O -1.45446e-03 -9.81823e-04 -1.70030e-03
       H -1.37667e-03 -1.67937e-03 -2.61988e-04
       H -9.21144e-03 -2.75465e-03 -4.74044e-03
       O  3.07168e-04 -1.10128e-03  3.77688e-04
       H -7.21729e-03 -5.95740e-03 -1.86324e-03
       H -6.49623e-03  4.35616e-05 -2.30607e-04
       O -1.42505e-04  1.50167e-03  2.49524e-04
       H  6.26919e-03  4.56149e-04  7.68838e-03
       H -5.66483e-04 -1.77844e-03  3.69661e-03
       O -6.19578e-04 -1.47895e-03  8.92129e-04
       H -2.55428e-03 -6.71881e-04  9.24100e-04
       H -5.25449e-03  8.84961e-04  1.01317e-03
       O  1.60214e-06 -3.21390e-04 -7.19101e-04
       H  1.61607e-03  5.24285e-04  1.04987e-02
       H  1.13220e-03 -3.66126e-04 -4.46655e-04
       O  9.11346e-05  7.05516e-05  7.04261e-05
       H  4.01600e-03  3.70600e-03  5.74848e-03
       H -3.01870e-04 -6.94325e-04 -6.37996e-03
       O  1.17416e-03 -6.76876e-04  2.65924e-04
       H -6.87723e-03 -9.65641e-04 -2.98620e-03
       H -4.35498e-03  6.74153e-04  3.99776e-03
       O  1.46039e-04  4.70365e-04  3.69927e-04
       H -4.67528e-03  2.04685e-03 -8.01719e-04
       H  4.42123e-03  4.23437e-03  5.81024e-05
       O  9.79863e-04 -5.11649e-04 -1.50748e-04
       H  1.97886e-03  5.53216e-03  7.68274e-03
       H  2.48018e-03  2.35763e-03  1.50331e-03
       O  4.90956e-04  4.49624e-04  1.22834e-03
       H  5.15852e-03 -3.22325e-03 -2.14143e-03
       H  3.13354e-03  1.91919e-03  2.45381e-03
       O -1.01997e-03  2.75003e-05 -1.40219e-03
       H -1.28467e-03 -2.67128e-03 -2.32994e-03
       H -5.76349e-03  4.60114e-03 -2.08222e-03
       O -1.11284e-03  2.94958e-04  5.70422e-04
       H -3.36791e-03 -2.22295e-03 -3.70780e-03
       H  5.98050e-03 -6.69394e-03 -2.22967e-03
       O -9.20494e-04  4.08698e-04 -1.64129e-03
       H -2.42354e-03 -7.84968e-03  3.15678e-03
       H -2.19413e-03  5.73794e-03 -4.28263e-03
       O  1.08888e-03 -1.75305e-04  1.22251e-03
       H  3.75006e-03 -2.93448e-03 -2.91974e-04
       H  4.87547e-03  4.04619e-03  8.47077e-05
       O  3.31024e-04 -2.30466e-04  2.38601e-05
       H  4.00827e-03  6.96640e-03  3.52492e-03
       H -3.82842e-03  7.84549e-03 -3.01900e-04
       O  4.93841e-04 -2.30872e-04 -4.50836e-04
       H -2.27162e-03 -5.15909e-03 -2.50718e-03
       H -1.28742e-03 -2.84960e-03 -1.62827e-03
       O  5.69788e-04  3.32088e-04 -3.09162e-04
       H -2.41948e-03  2.62174e-03 -1.21808e-03
       H -3.69319e-03  2.16610e-03 -1.51026e-03
       O -2.73836e-04 -1.10682e-03 -1.08852e-03
       H -8.59668e-06 -9.92779e-03  2.36998e-03
       H -7.08625e-04 -2.37787e-03 -3.18601e-03
       O  1.10985e-03 -5.99848e-04 -4.32410e-04
       H  3.38691e-03  7.63286e-04  1.05416e-03
       H  3.24921e-03  3.67669e-03 -3.78259e-03
       O  4.68052e-04  7.24232e-04  1.21973e-03
       H -2.11222e-03 -5.02765e-03 -1.80352e-03
       H  8.49025e-04  5.10607e-03 -1.79076e-03
       O  5.36101e-04 -3.57348e-05  4.82235e-04
       H  4.26333e-03  6.37666e-04 -1.09082e-03
       H -4.54982e-03  3.53603e-03  2.16250e-03
       O -6.79054e-04  1.12213e-04 -6.61704e-04
       H -4.58531e-03  6.01204e-03 -2.94088e-03
       H -2.53588e-03 -2.39583e-03 -9.14904e-04
       O -8.68403e-04 -1.87205e-03  9.80053e-04
       H  2.06465e-03  4.17953e-03  9.79789e-04
       H  7.11845e-03 -3.70264e-03 -4.48769e-03
       O -1.41316e-05 -4.45393e-05  3.94911e-04
       H -6.04312e-04 -4.41409e-03 -4.35873e-05
       H -2.00022e-03 -1.31070e-03  2.86448e-03
       O -1.70834e-04 -1.65396e-05  8.76065e-04
       H -2.46305e-03  1.03765e-03 -2.18564e-03
       H  1.14070e-03 -1.33670e-03 -5.72637e-03
       O -6.39267e-04  5.73946e-04 -1.07610e-03
       H -1.62107e-03 -5.99501e-05 -7.55871e-03
       H  4.33937e-03  7.20894e-04  5.47767e-03
       O -8.32718e-04 -8.77081e-04  2.98711e-04
       H  2.62069e-03 -4.16039e-03 -3.43683e-03
       H -1.44970e-03  3.92449e-03 -1.76263e-03
       O -1.01966e-03  7.25636e-04 -1.47711e-04
       H -2.83268e-03 -3.59345e-03  3.75629e-03
       H -2.07524e-03 -2.60404e-03  7.23052e-03
       O -4.56671e-05 -2.28176e-04  7.49174e-04
       H -1.22499e-03  2.19550e-03  1.35240e-04
       H  1.74080e-03  2.83114e-03  3.96397e-03
       O  4.18134e-04 -2.27681e-04  4.13102e-05
       H  2.71282e-04  2.43460e-04 -1.06004e-03
       H -3.67731e-03  7.67800e-03  4.97998e-03
       O  8.73769e-04  5.46605e-04 -1.08353e-03
       H -1.82635e-03  1.57654e-03 -3.63109e-03
       H -2.64176e-03 -3.10484e-03 -4.70030e-04
       O -3.87163e-04  7.60435e-04  3.36423e-04
       H  4.84947e-03 -2.90525e-03 -8.09614e-03
       H  7.68145e-04 -5.82509e-03 -1.26194e-03
       O  6.16436e-04 -1.17223e-04 -1.39549e-03
       H -1.22313e-03  1.29773e-03 -5.11267e-03
       H -8.98968e-04 -5.52271e-03  7.20326e-03
       O  5.28805e-04  6.31930e-04  7.51190e-04
       H  2.75014e-03 -1.27575e-03 -3.57232e-03
       H  3.37083e-03  2.35209e-03 -3.87679e-03
       O  9.12388e-04 -5.22594e-04  5.83217e-04
       H  2.43977e-03 -2.14997e-03 -1.93864e-03
       H -3.47010e-03 -2.05217e-03  4.16919e-03
       O -1.20462e-03 -1.04818e-04 -1.16135e-03
       H -2.37845e-03 -1.09948e-03  3.85222e-03
       H  1.33280e-03  8.93560e-04  4.94964e-03
       O -1.03973e-05 -2.33147e-04  7.11968e-05
       H -2.58850e-03 -1.47213e-03  1.00400e-02
       H  4.98256e-03  1.81821e-03 -6.60870e-06
       O  1.18105e-04 -2.66091e-05  7.48032e-04
       H  2.19669e-03  3.13478e-03  2.30673e-04
       H  2.89121e-03  1.79143e-03  4.48747e-05
       O  1.65579e-04  7.20340e-04  1.19186e-04
       H -7.29181e-03  2.93891e-03  3.93029e-03
       H  2.59921e-03 -3.87118e-04 -1.73243e-03
       O  1.75994e-03  2.51651e-04 -1.93715e-03
       H  5.13098e-03  2.75177e-03 -6.48379e-03
       H -5.99784e-03  3.41193e-03 -5.39897e-03
192
# CELL(abcABC):   16.99620    29.43815    27.67315    90.00000    90.00000    90.00000  Step:          20  Bead:      25 velocities{atomic_unit}  cell{atomic_unit}
       O -2.11805e-04  7.56832e-04 -4.78924e-04
       H  2.68482e-03  5.18036e-03  3.77661e-03
       H  2.15082e-03 -5.08654e-03  9.60095e-04
       O -4.20747e-04  4.46141e-04  2.50662e-03
       H -6.51188e-03  7.46798e-03 -2.62893e-03
       H -1.63260e-03  2.25720e-03  1.64088e-03
       O  3.42240e-04 -2.01240e-03  5.47203e-06
       H  6.43584e-04 -5.26622e-03 -4.10752e-03
       H -9.09442e-04  4.18296e-03 -2.08490e-03
       O -4.71851e-04 -2.04012e-04  1.00942e-03
       H -1.85344e-03  4.00705e-03  2.54810e-03
       H  5.78203e-03 -4.35333e-03 -2.92631e-03
       O  5.05065e-04  2.02047e-03 -1.90467e-04
       H -2.20879e-03  4.10509e-03 -2.54739e-03
       H  3.37335e-03  3.67211e-03  4.81281e-03
       O  5.19321e-04  7.11023e-04 -8.76175e-04
       H -3.16262e-03  3.17225e-03 -3.13785e-04
       H  1.10472e-03  1.57670e-03  8.62381e-03
       O  1.09316e-03  1.30622e-04 -1.44714e-03
       H -5.06388e-03 -7.36206e-04  2.09595e-03
       H -4.17268e-03  4.15274e-03 -1.80661e-03
       O -1.56768e-04  6.32631e-04 -6.02910e-04
       H -5.36046e-03 -2.14900e-03 -2.37613e-03
       H -6.78232e-04 -8.17627e-04  7.44696e-03
       O -4.00427e-04  5.01862e-04 -9.31826e-04
       H -1.15247e-03  4.96704e-03 -5.75974e-05
       H  3.66243e-03 -4.21286e-03  7.06914e-04
       O -9.95639e-04 -8.52948e-04 -9.08208e-04
       H  1.41750e-04  1.96057e-03  5.68075e-03
       H -5.17910e-03 -3.91027e-03  3.80236e-03
       O  1.75976e-03  2.27374e-04 -1.26813e-03
       H  2.30788e-03 -2.62696e-03 -3.43067e-03
       H  1.81984e-03 -1.06293e-03  3.44302e-03
       O  1.66124e-04  1.65445e-03  8.28082e-04
       H  4.70111e-03  2.72677e-04  3.79923e-03
       H  2.45392e-03 -6.80109e-03 -4.55986e-04
       O -9.88673e-04 -1.47562e-03  2.93624e-04
       H -7.16871e-04 -1.06814e-04 -3.16083e-03
       H -7.40117e-04  6.70856e-04 -1.36722e-03
       O  1.43979e-04  5.74810e-04 -1.87620e-03
       H  7.65262e-04 -2.72537e-03  3.66759e-03
       H -1.62339e-04  9.86001e-04 -3.49057e-03
       O  1.15867e-03 -3.22662e-04 -5.22789e-04
       H  3.63231e-03  3.93017e-03  1.27985e-03
       H -1.04092e-03  6.49848e-03  2.15664e-03
       O -4.92095e-05 -9.86793e-04 -1.19451e-03
       H  1.96456e-03  8.64036e-04 -2.70450e-03
       H  8.27957e-04 -3.48682e-03 -6.05339e-03
       O  9.70751e-04  1.72972e-04  1.32624e-03
       H -9.16129e-04  5.85838e-03 -1.42727e-03
       H  4.22472e-03  2.44415e-04 -2.58581e-03
       O -3.70612e-04  9.05221e-04  8.08990e-05
       H  8.09952e-04  2.92840e-03 -3.46354e-03
       H -2.78610e-04 -2.45568e-03  3.66588e-03
       O  6.74581e-04 -6.72294e-04  5.53005e-04
       H  5.06157e-03  1.05197e-03 -1.24674e-03
       H -1.22460e-03 -2.03574e-03  1.57149e-03
       O  8.27336e-04 -1.92063e-03 -2.46319e-03
       H -6.27661e-03  4.79467e-03 -7.31131e-05
       H  1.27036e-03  3.13240e-03 -1.01071e-03
       O -5.92221e-04 -1.45141e-03 -1.29252e-03
       H -5.24974e-04  6.70418e-04 -1.43679e-03
       H -1.64522e-03 -1.68104e-03 -7.49127e-03
       O  1.04229e-03  2.51719e-03  1.65295e-03
       H  2.22001e-04 -5.75980e-04 -7.70787e-05
       H  1.41664e-03  3.45136e-03  1.83919e-03
       O -8.23286e-04  3.40566e-04 -7.30657e-04
       H -1.79381e-03  3.07910e-03 -2.07859e-03
       H -2.04401e-03  4.13288e-04 -6.00614e-03
       O -3.78125e-04  9.30594e-04 -1.97662e-06
       H -1.64886e-03 -3.46753e-03  3.23257e-03
       H  3.76365e-03  6.46163e-05  6.14509e-04
       O  4.14393e-04 -7.90359e-04 -5.98920e-04
       H -6.51013e-03  3.76802e-03  4.28121e-03
       H  1.00368e-03 -4.59487e-03  9.14405e-04
       O  8.53808e-04  1.60717e-03 -6.61643e-05
       H -2.49688e-03  3.61032e-04 -1.63996e-03
       H  4.58737e-03 -2.48034e-03 -3.26230e-03
       O  4.49959e-04  1.03801e-03 -9.60933e-04
       H  7.98509e-04 -5.83642e-04  2.19533e-03
       H  9.89955e-04 -1.23931e-03 -3.84879e-03
       O -4.42997e-04  1.55096e-03 -1.78042e-03
       H -5.14183e-04 -6.79397e-04  4.51174e-03
       H  2.38947e-06  3.22034e-05  9.38767e-04
       O -3.95471e-04  8.97387e-04  1.02444e-03
       H -1.78411e-04 -8.79286e-04 -1.35197e-03
       H  6.63215e-03 -1.05851e-03 -2.93407e-04
       O  1.39945e-03  9.98322e-05 -1.27063e-03
       H -1.14013e-03 -1.09082e-03  5.01709e-03
       H -1.40964e-04  5.63676e-03  7.38331e-03
       O  6.85964e-04 -4.39482e-04 -4.73775e-04
       H  6.95803e-03  1.48004e-03  8.67140e-04
       H  2.57829e-03  1.88997e-04 -5.20751e-03
       O  8.53383e-04 -1.69415e-03  2.03855e-04
       H  2.52193e-03 -2.46668e-03  6.11473e-03
       H  6.99871e-03  5.42397e-03  5.39016e-03
       O -5.12854e-04  9.16647e-04 -6.86048e-04
       H -4.05200e-04  1.43728e-03 -2.40782e-03
       H  6.38663e-04 -4.94059e-03  7.94654e-03
       O  2.02483e-05 -3.45370e-04  5.52609e-04
       H -3.37270e-03  5.28407e-03  5.04630e-04
       H  2.84839e-03  3.13172e-03  2.34629e-03
       O -3.16255e-04 -2.77603e-04 -1.13259e-03
       H  1.47506e-03  6.50375e-04  9.34544e-04
       H  4.82562e-03 -9.05132e-04  5.58732e-03
       O  7.79497e-04  3.79125e-05  1.76286e-04
       H -1.82891e-03 -7.17119e-03  6.32666e-03
       H -8.33717e-04  4.09038e-03  1.53067e-03
       O  1.89718e-03  1.05728e-03 -1.45777e-03
       H  4.53139e-03 -1.42561e-03 -7.48436e-03
       H  2.81215e-03 -1.96974e-03 -7.63950e-04
       O -1.20317e-03  7.23268e-04 -1.44159e-03
       H  2.61959e-03 -3.15041e-03  1.14066e-03
       H -8.43514e-04  3.28129e-03  2.22470e-03
       O -4.06895e-04 -9.43272e-04 -3.38233e-04
       H  6.39324e-03 -4.61725e-03  1.27197e-03
       H  1.06868e-03  2.09138e-03  1.82195e-03
       O  8.07336e-04  7.06729e-04 -1.06555e-03
       H  3.02448e-03 -3.81052e-03  1.72850e-03
       H  3.17849e-03 -1.26591e-03 -7.60369e-04
       O -1.04767e-03 -9.02639e-04 -3.76041e-04
       H  3.75682e-03 -5.07096e-03  1.56931e-03
       H  7.93347e-03  3.76556e-03  1.95314e-04
       O -2.76016e-04 -8.11147e-04 -9.95433e-05
       H  2.20432e-03  3.21601e-03  2.30969e-03
       H -6.70460e-04  6.92617e-03  4.94004e-03
       O -4.32986e-05  9.31907e-05  6.31135e-04
       H -3.13139e-03  1.36330e-03 -1.59722e-03
       H  8.95128e-06  3.28126e-03 -1.02262e-03
       O -8.37343e-05 -7.60978e-04  1.61546e-03
       H  1.94841e-03 -1.59646e-03 -1.85727e-03
       H -3.00742e-03  4.55899e-03  9.00744e-03
       O -1.17041e-04 -1.24494e-03 -3.18904e-04
       H -1.32129e-04 -1.58637e-03  7.43458e-03
       H -1.26984e-03  1.45481e-03  1.45626e-03
       O  5.77618e-05  6.79854e-04  6.73291e-04
       H -1.04180e-03  1.02031e-03  1.51350e-03
       H -2.40768e-03  2.27956e-04  1.27136e-04
       O -6.90201e-04  2.16197e-05 -8.08793e-04
       H  5.43979e-03 -5.95376e-04  3.27836e-03
       H  6.38851e-03 -1.66894e-03 -1.94602e-04
       O -1.35489e-03 -3.36204e-04  4.12228e-04
       H -3.47444e-03 -2.41980e-03 -6.05460e-03
       H -6.20457e-04 -1.77723e-03 -4.41604e-03
       O  3.97639e-05  1.06330e-03  1.79759e-03
       H -4.15210e-03 -1.19297e-03 -4.46751e-03
       H -1.09393e-05  4.27677e-03 -3.92299e-03
       O -1.21469e-03 -9.26965e-04  7.73915e-04
       H -8.16123e-03 -6.15204e-03 -1.11718e-03
       H  1.18578e-03 -3.97983e-03 -1.54456e-03
       O -1.52429e-04  4.35582e-04 -1.29584e-03
       H  1.38210e-04  3.02259e-03 -8.98205e-04
       H -1.58420e-03 -3.33103e-03 -3.34349e-03
       O -1.42780e-03  1.78817e-04  3.48455e-04
       H -2.37994e-03 -2.53833e-03  4.73737e-03
       H -3.08646e-03  2.27050e-03  4.57208e-03
       O  4.42480e-05  2.04995e-04  1.43979e-03
       H  2.87134e-05 -2.07947e-03 -4.76855e-03
       H -5.45519e-03 -1.37330e-03  8.29518e-03
       O -2.71012e-04 -1.41490e-03 -1.15717e-03
       H  7.69548e-03 -3.17477e-03  1.43591e-03
       H  5.33758e-04 -3.21401e-03  5.33934e-04
       O -4.21352e-04 -4.08131e-04  1.24561e-03
       H  4.03261e-03  5.27967e-03  2.07456e-03
       H -5.16372e-04 -5.25789e-05  1.67018e-03
       O  8.76683e-04 -1.16837e-05 -1.09418e-03
       H  1.30106e-03  6.23624e-05 -2.72414e-03
       H  3.39431e-03  2.84245e-03  2.57679e-03
       O  6.09538e-04  5.92798e-04  8.73623e-04
       H -2.16137e-05 -3.67278e-03  2.34847e-03
       H  5.13130e-03  3.83852e-03  3.32933e-04
       O  1.05184e-03  1.28914e-03 -5.39768e-04
       H  3.63452e-03  7.14620e-04  1.08841e-02
       H  5.60724e-04 -1.69165e-03  1.94024e-03
       O  3.84706e-04 -3.43980e-04  3.72930e-04
       H  2.67416e-03  3.13412e-03  5.43953e-03
       H -8.60508e-03  4.75943e-03  2.26674e-03
       O  8.95646e-04 -3.35257e-04  2.52596e-04
       H  2.91667e-03  7.61706e-03  2.39132e-03
       H  4.05598e-03  4.30750e-03 -2.12975e-03
       O  1.94669e-04 -1.47313e-03 -1.13311e-03
       H -1.74925e-03 -2.10115e-03 -2.76360e-03
       H  1.68227e-03  3.51211e-03  1.12548e-03
       O  8.91811e-04 -2.00531e-04  8.25342e-05
       H -4.26695e-03 -3.87392e-03 -4.40711e-03
       H -3.22890e-03 -3.55977e-03 -6.14555e-03
       O  2.14749e-06 -3.18169e-04  9.70159e-04
       H  5.55489e-05 -7.46289e-04 -3.72103e-03
       H -1.63971e-03  2.21736e-03  1.01604e-03
       O -2.95783e-04 -7.06105e-04 -1.14960e-03
       H -2.33470e-03  2.57589e-03  2.91750e-03
       H  1.01986e-03  4.05050e-03  3.87471e-03
192
# CELL(abcABC):   16.99620    29.43815    27.67315    90.00000    90.00000    90.00000  Step:          30  Bead:      25 velocities{atomic_unit}  cell{atomic_unit}
       O  1.78959e-03 -1.26072e-03 -8.96374e-04
       H  2.14079e-03 -2.09689e-03  4.11328e-03
       H -2.18674e-03 -3.99830e-03 -3.05242e-03
       O  4.16350e-04  5.45557e-04 -1.34282e-03
       H  2.56771e-04  3.59881e-03  3.27963e-03
       H  2.98367e-03 -2.28763e-03 -1.87902e-03
       O  8.07004e-04 -7.46444e-04 -2.83801e-04
       H  3.15795e-03 -6.45339e-04  2.98558e-03
       H -3.46731e-03  8.51486e-04 -3.07431e-04
       O  3.85952e-04  7.17062e-04  7.02362e-04
       H -6.95006e-04  9.25132e-04  3.02361e-03
       H  2.27719e-03 -5.97004e-03  2.29432e-03
       O  1.86956e-03  7.81479e-04  9.23855e-05
       H  1.48382e-03 -7.02244e-03  1.03114e-03
       H -4.41046e-03  1.94296e-03 -3.11855e-03
       O -1.36053e-03  5.60343e-04  1.05022e-03
       H  3.19415e-03  2.36129e-03  3.15081e-03
       H -1.70587e-03 -2.71935e-03 -3.25143e-03
       O  2.69318e-05  7.75955e-04  9.79401e-04
       H  9.46979e-04 -2.32619e-03 -2.28422e-03
       H  3.27926e-03  8.62173e-04 -2.86297e-03
       O  5.31754e-04 -5.75687e-04 -8.22507e-05
       H  3.43650e-03 -4.90954e-03  3.54334e-03
       H  6.92381e-03  4.49641e-03  5.39374e-03
       O  9.87888e-05 -9.08980e-04  7.10024e-04
       H -6.71413e-03  2.79091e-03  2.28040e-04
       H -4.08992e-03 -6.07130e-03  2.48769e-03
       O -1.46770e-03 -1.44004e-03 -2.92422e-04
       H  2.02353e-03 -2.11168e-03  2.41761e-04
       H -7.40686e-05 -2.19724e-03  3.86990e-03
       O -4.74765e-04 -7.57810e-04  2.98278e-04
       H -2.90815e-03 -2.96042e-03 -1.92631e-03
       H  5.03824e-03  5.38563e-03 -2.15272e-03
       O  1.10423e-03  9.62460e-04  7.16601e-05
       H -9.95683e-04  1.01119e-02 -3.29911e-03