192
# CELL(abcABC):   16.99620    29.43815    27.67315    90.00000    90.00000    90.00000  Step:           0  Bead:      13 velocities{atomic_unit}  cell{atomic_unit}
       O -1.13433e-04 -2.50677e-03 -1.10287e-03
       H -2.51984e-03 -7.89189e-04  9.98915e-04
       H  4.17232e-04 -7.42616e-03 -4.38782e-03
       O -4.73081e-05  5.18179e-05  4.39577e-04
       H -1.97192e-03 -7.55645e-04 -1.88754e-03
       H -1.58020e-03  3.98412e-04 -5.10766e-03
       O -2.68281e-04  1.44942e-04  8.28318e-04
       H -1.30761e-03  7.55075e-03  3.74276e-03
       H -1.36330e-04  1.35485e-03 -6.18060e-03
       O -5.26636e-04 -8.57453e-04  7.24510e-04
       H -1.01057e-03  3.57220e-03 -6.33254e-03
       H  5.19706e-04  1.76860e-03 -3.14902e-03
       O  3.48188e-05 -2.27665e-03  1.49169e-04
       H -7.99069e-04  3.98777e-03  4.67554e-03
       H  2.68593e-04  4.89350e-03 -2.39405e-03
       O -1.39360e-03  9.24100e-04 -2.20796e-03
       H  3.93488e-03  1.90437e-04 -8.74733e-03
       H  2.66594e-04 -7.09096e-03  2.44965e-03
       O  5.45620e-04  9.18702e-04  1.15176e-03
       H -1.52043e-03 -1.69604e-03 -4.20537e-03
       H -1.32446e-03  2.63863e-03 -7.65343e-04
       O  4.77536e-05  1.92095e-03  4.25151e-04
       H  1.08777e-03  2.02676e-04 -4.89898e-04
       H -1.05178e-03  7.13147e-03  4.03466e-03
       O -1.13946e-03  9.87149e-04  1.01878e-03
       H -8.45031e-04  4.17675e-03  4.06149e-03
       H -1.88264e-03 -2.90332e-03  9.33633e-04
       O  2.39115e-04  4.40035e-04  8.14491e-04
       H  2.13665e-03 -2.32894e-03 -1.11968e-03
       H -2.85471e-03 -6.73399e-03 -3.27468e-03
       O -8.35154e-04 -4.21677e-04 -3.98824e-04
       H -2.08720e-03 -1.02400e-03 -2.23657e-03
       H -3.07374e-03  1.42039e-05  7.21685e-04
       O  2.04787e-03  6.09596e-04  9.83236e-04
       H  7.08893e-03 -3.58531e-03  1.08710e-05
       H  6.39857e-03 -9.79253e-04  6.70161e-04
       O  9.23062e-04 -2.59264e-05  2.90719e-04
       H -6.89135e-03  1.55182e-03  4.53834e-03
       H  2.69448e-03 -2.65950e-04  1.20989e-03
       O -1.48376e-03  7.63823e-04  5.71195e-04
       H  1.94156e-03 -5.99633e-03 -3.98920e-04
       H  2.98505e-03  2.96678e-03  1.37947e-03
       O  4.33344e-04  1.07824e-03 -7.85854e-04
       H -4.93931e-03 -3.32146e-03 -3.64210e-03
       H  2.40851e-03  4.36619e-03 -2.08719e-03
       O  7.41373e-04  9.53605e-05 -3.05746e-04
       H -2.79153e-03 -1.22157e-04 -1.82562e-03
       H -6.04109e-04 -6.84935e-03 -2.05703e-03
       O -1.01157e-03 -1.41165e-03 -1.38266e-03
       H  4.09103e-03  5.32351e-03  4.77448e-03
       H  5.14217e-04  2.99429e-03 -3.15663e-03
       O -5.01136e-05 -3.65432e-04 -3.93454e-04
       H  5.62783e-03  4.90664e-04 -3.68206e-03
       H -4.89479e-03 -2.75861e-03  1.07080e-03
       O  1.38973e-03 -5.67257e-04 -2.51780e-03
       H -9.54820e-04  2.69726e-03 -1.70206e-03
       H -1.75284e-03 -3.37668e-04  1.57139e-03
       O -2.14999e-03  1.50345e-03 -1.93656e-03
       H  4.35883e-03  7.14476e-03 -3.71939e-03
       H -1.88308e-03 -3.12770e-03 -7.89211e-03
       O  1.22811e-03 -9.94399e-04  8.96177e-05
       H  4.26726e-04  2.99652e-06 -2.29679e-03
       H -7.34524e-03  1.88572e-03  8.75747e-04
       O -6.74966e-04  5.23574e-04  2.49430e-03
       H -1.67996e-03 -4.03583e-03 -2.80767e-03
       H -7.39215e-04  1.37085e-03  5.35322e-03
       O -3.72385e-04  2.62597e-04 -1.19348e-03
       H -2.10069e-03  2.41784e-03 -5.45063e-03
       H  3.83368e-03  1.56725e-03  4.68611e-04
       O -7.62967e-04 -4.86378e-04 -3.68180e-04
       H -8.62809e-04  2.19002e-03 -4.59724e-03
       H -1.24545e-04  1.10896e-03  6.40061e-03
       O  5.88170e-04  7.93506e-04 -2.10784e-03
       H  3.24383e-03  1.65343e-04  4.24659e-03
       H  5.78846e-03 -7.47403e-04  7.64986e-03
       O  3.86278e-04 -1.11513e-03 -1.43479e-03
       H  1.80964e-04 -1.03968e-04 -3.23474e-03
       H -1.36117e-03 -5.19548e-03  4.15236e-03
       O -4.26569e-05  2.05787e-05  1.31216e-04
       H  2.48088e-03 -8.03117e-03 -1.60163e-03
       H -1.09814e-03 -4.19724e-03  6.08881e-03
       O  7.62256e-05  2.69335e-03 -8.45026e-04
       H  2.06760e-04 -1.28201e-03  1.89188e-03
       H -2.04390e-03 -5.81704e-03 -2.92530e-03
       O  2.21198e-03  4.03496e-04 -1.71008e-03
       H  9.75708e-04 -7.06388e-04  2.62301e-04
       H  2.31606e-03 -8.81680e-03 -4.46180e-03
       O -6.14354e-05 -1.06214e-03 -3.51942e-04
       H  4.12518e-04 -7.29608e-04  2.11071e-04
       H -6.40858e-05 -2.46834e-03 -3.14620e-03
       O  2.30709e-04  3.40292e-04 -6.45784e-04
       H -4.94504e-04 -1.93471e-03 -2.85343e-03
       H  1.67833e-03  1.68834e-03  3.23639e-03
       O -1.61129e-04 -1.16712e-03 -4.75997e-04
       H -6.53523e-03  3.54549e-03  4.12714e-04
       H -8.48708e-04  5.60523e-04 -1.52847e-03
       O  5.63958e-04 -6.67572e-05 -6.14617e-04
       H  4.75157e-03 -1.29200e-03 -1.22753e-03
       H  3.12031e-03  8.89773e-04  1.30351e-03
       O  3.32008e-04 -1.30135e-03  8.05402e-05
       H  7.90995e-03 -1.67338e-03  1.57626e-03
       H -1.25878e-03  5.04433e-03  2.89015e-03
       O -2.38951e-04  2.41417e-04  1.28176e-03
       H -2.48362e-04 -2.38518e-03 -6.51664e-03
       H -2.59504e-03 -1.27906e-03  7.28682e-04
       O -1.46304e-03  2.89477e-04 -9.00303e-04
       H  6.39949e-03  7.10117e-03  4.87806e-03
       H -3.25726e-03  1.90319e-03  1.10509e-03
       O -1.60698e-03 -1.14620e-03 -8.17100e-04
       H  2.72906e-03 -2.77082e-03  5.32616e-04
       H  3.48273e-03  6.36833e-03 -6.60028e-03
       O  7.99254e-04 -2.91690e-04 -1.23345e-03
       H -4.14006e-03  1.46859e-03  1.14620e-03
       H  3.25702e-03  3.13196e-04  7.63317e-04
       O -2.14354e-04 -1.29532e-03  9.47716e-04
       H -5.40578e-03 -1.50067e-03  1.13856e-03
       H  3.00527e-03  2.91732e-03 -2.26638e-03
       O  4.78933e-04 -4.32681e-04  1.99286e-05
       H  4.01374e-03  3.02021e-03  8.50770e-03
       H  5.35657e-03 -2.59588e-03 -1.17665e-03
       O -4.09640e-04 -1.22593e-03 -5.59844e-04
       H  5.49317e-04  7.53574e-04 -6.47965e-03
       H  6.89217e-04  2.95004e-03 -1.82598e-03
       O -6.32609e-04 -3.06949e-04  6.53962e-06
       H  2.32221e-03  3.47260e-03 -3.02691e-03
       H -2.81953e-03 -3.66463e-03 -2.79504e-03
       O  1.04627e-03  1.84156e-03  5.21869e-04
       H  2.66666e-03 -7.60564e-03 -1.26811e-03
       H -3.77162e-03  7.10305e-04 -4.98667e-03
       O -1.26158e-04 -3.02126e-05 -4.26323e-04
       H  5.74095e-03 -7.74453e-03 -1.80665e-03
       H  1.08023e-04 -4.86454e-04  9.86264e-04
       O -1.18765e-03  2.13999e-03  1.05956e-03
       H  5.98680e-03 -1.11749e-03  3.12095e-03
       H -2.35494e-03 -2.11277e-03  2.71457e-03
       O  1.03196e-03  1.77352e-03  1.76127e-03
       H  2.13214e-03  1.57722e-03 -2.62559e-04
       H -4.31479e-03  1.46587e-03  5.93921e-03
       O -1.12052e-03  4.18752e-04 -1.39774e-03
       H -4.92835e-03  7.08355e-03 -5.22394e-03
       H -4.02800e-05 -5.40579e-03  1.15803e-03
       O  5.02106e-05  9.38956e-04 -1.47551e-04
       H  7.72330e-04  2.39752e-03 -3.06288e-03
       H  2.80038e-03  3.67878e-03 -1.97142e-03
       O -7.39209e-04  3.90897e-04  1.92059e-04
       H  2.03984e-03  1.17593e-04  4.86361e-04
       H  9.57606e-04 -2.98470e-03 -1.12720e-03
       O -9.30024e-04  7.52416e-04  4.77604e-05
       H -5.81980e-03 -2.25284e-03 -3.15612e-03
       H  9.67757e-04  3.13365e-03 -1.07538e-03
       O -9.85545e-04  1.47397e-04  4.48430e-04
       H  4.28894e-04  7.42308e-03  2.40393e-03
       H -1.36312e-03 -3.99035e-03  2.33760e-03
       O  6.54933e-04  7.49836e-04  5.35631e-04
       H  2.32493e-03  3.66959e-03  3.13966e-03
       H -2.63204e-03  7.62322e-04 -4.53123e-03
       O -1.67463e-04  7.58044e-05 -6.56138e-04
       H  3.43647e-03 -3.13937e-03  2.22473e-03
       H  7.84641e-04 -1.94158e-03  1.90251e-03
       O -2.21564e-04 -3.35621e-05 -3.77522e-04
       H -3.01653e-03  2.44167e-03 -2.74524e-03
       H  9.77243e-04 -2.48537e-03 -2.69945e-03
       O -7.85417e-05  1.14956e-03  1.10982e-03
       H -6.11911e-03 -3.65055e-04 -1.41084e-03
       H  5.28026e-03  1.33055e-04 -1.43643e-03
       O  6.31584e-04  1.28609e-03  4.10666e-04
       H  8.51677e-04 -2.31133e-03 -1.42450e-03
       H  1.42215e-03 -1.98060e-04  6.36086e-04
       O -5.76509e-04 -1.05628e-03 -7.33366e-04
       H  2.77637e-03 -3.95619e-03 -2.92283e-03
       H  2.97749e-03 -4.67237e-03  1.88526e-03
       O  6.91437e-05 -8.55070e-04 -4.17411e-04
       H  1.10224e-03  1.29308e-03 -2.74300e-03
       H  5.05040e-03  2.61252e-03 -1.94621e-04
       O -5.56885e-04 -9.60602e-04  6.56258e-04
       H -1.56310e-03  1.60199e-03  2.22338e-03
       H  3.95722e-03  1.04965e-03  2.61617e-03
       O  1.29660e-03 -1.09045e-04  3.08762e-04
       H  2.20579e-03  1.26417e-03  4.21244e-03
       H  5.95462e-03 -2.64548e-03  2.29237e-03
       O -9.89531e-04 -8.34271e-04  5.67235e-04
       H  7.23542e-03  4.39390e-03 -9.44343e-04
       H  1.82981e-03  4.98213e-03 -3.27823e-03
       O -1.59477e-03  5.31618e-04 -5.17589e-04
       H  1.55639e-04 -2.71868e-03 -2.89835e-05
       H  1.38494e-03  5.83378e-03  6.37903e-04
       O -7.84508e-04  9.07771e-04 -8.40615e-04
       H -1.19639e-03  1.45759e-03  3.38771e-03
       H -5.37176e-03 -6.03121e-06 -3.63595e-03
       O  1.50175e-04 -8.76309e-05  3.38159e-04
       H -3.73054e-03  5.98082e-03 -4.26732e-03
       H -4.22324e-04  2.80758e-04  8.00894e-03
192
# CELL(abcABC):   16.99620    29.43815    27.67315    90.00000    90.00000    90.00000  Step:          10  Bead:      13 velocities{atomic_unit}  cell{atomic_unit}
       O  1.03313e-04 -1.42398e-03 -3.25897e-04
       H -2.00382e-04  3.55009e-03 -2.67392e-03
       H -2.64063e-03  7.14530e-04 -1.07858e-03
       O  3.54928e-04  7.66849e-04  2.86978e-04
       H  2.70111e-03 -7.11415e-03  4.98044e-04
       H -7.05041e-03 -1.45157e-03  2.31023e-03
       O  7.36716e-05 -2.45416e-04  1.39136e-04
       H  2.52691e-03 -1.18646e-03 -6.69268e-03
       H  2.19859e-04  2.25017e-03  1.03531e-03
       O  5.15180e-04 -2.51211e-04 -9.37265e-05
       H -1.44645e-03  4.27656e-03  3.95783e-03
       H  5.61499e-04  5.28320e-03 -3.83265e-03
       O  4.98417e-04 -7.50578e-04 -1.05214e-04
       H  1.46737e-04  2.19292e-03 -8.18790e-04
       H -1.01865e-03 -4.91666e-03  2.63735e-03
       O  8.28828e-04  6.00451e-04 -5.99191e-04
       H  9.34904e-04 -2.45658e-04  4.49220e-03
       H  2.71239e-04  1.39783e-04 -4.00126e-03
       O -6.61791e-04 -1.72591e-03  4.18813e-04
       H  1.78669e-03  2.45204e-03  4.58122e-04
       H  2.46255e-03  2.71947e-03  1.42976e-03
       O -1.43779e-04  2.23704e-03  3.35476e-04
       H -1.08113e-03  1.38666e-03 -4.70800e-03
       H  3.66015e-04 -4.90793e-04  5.15623e-03
       O -6.78923e-04  3.59050e-04  1.86382e-03
       H  6.31030e-03  4.54634e-03 -3.41838e-03
       H -2.54942e-03  3.28805e-03 -3.50619e-03
       O -1.43799e-04 -5.88530e-04  1.07943e-03
       H  1.27356e-03 -5.58316e-04 -1.43529e-03
       H -3.81560e-03 -4.66746e-03  2.35536e-03
       O -1.09672e-03  1.38435e-03  1.06792e-03
       H  1.56294e-03 -5.51136e-04  2.01990e-03
       H -3.13943e-03  4.82748e-03 -2.50366e-03
       O -7.80098e-04  5.80085e-04 -1.18107e-03
       H  3.40977e-03  1.08823e-03 -4.42682e-04
       H  3.44762e-03 -6.15900e-04 -3.72284e-03
       O -1.77986e-04  2.20993e-05 -3.57188e-04
       H  7.52821e-05  8.62580e-04  8.32196e-03
       H  7.74244e-03 -2.97094e-03 -2.50703e-03
       O -1.91021e-05  6.76922e-04 -8.14669e-05
       H  6.60543e-04  2.67617e-03 -3.15770e-03
       H  2.22487e-03 -3.04272e-03  6.83237e-04
       O -1.23135e-03 -7.33052e-04  1.00662e-04
       H  3.71932e-03 -3.10165e-03 -1.38027e-03
       H  2.96336e-03  6.42727e-03 -1.37303e-03
       O -4.28897e-04 -4.25104e-04  1.03044e-05
       H  9.89543e-04  1.47474e-03  2.38052e-03
       H  4.19033e-03  4.15049e-03 -2.64785e-03
       O  1.45643e-03  8.51737e-04 -5.02791e-04
       H  2.11783e-03 -1.29996e-02  3.75939e-03
       H -1.38605e-03 -2.16348e-03  3.88598e-03
       O  2.77226e-04  7.81987e-04 -1.40880e-03
       H -5.43615e-04 -1.39999e-03 -3.98873e-03
       H  1.74544e-03  3.89389e-04 -1.86457e-03
       O  2.28603e-04  1.46745e-03  8.53570e-04
       H -2.70677e-03  6.75767e-03 -4.98792e-03
       H  5.06487e-03 -9.29737e-05 -1.09420e-02
       O  1.30675e-03 -2.83786e-04  1.68483e-04
       H  1.30043e-03  5.13406e-04 -2.42874e-03
       H  2.52538e-03 -3.06926e-03  1.36533e-03
       O -1.03891e-03  4.77607e-04  1.31273e-04
       H -6.66954e-03  8.16747e-04  1.04498e-03
       H -1.78259e-03 -2.73972e-03  2.38845e-03
       O -2.52534e-05 -6.05206e-04 -2.10351e-04
       H  2.81529e-03  2.13787e-03  3.02020e-03
       H  1.81210e-03 -9.60083e-04  2.58230e-03
       O -6.97802e-04  5.35534e-04 -4.75496e-04
       H -5.60966e-04 -5.07290e-03  5.22178e-03
       H -7.70089e-04 -2.62253e-03 -1.52651e-03
       O  1.03331e-04 -1.12976e-03 -9.47179e-04
       H  3.01523e-03  1.53333e-03 -3.26106e-03
       H -1.07334e-03  4.09235e-03 -5.27738e-04
       O  2.42401e-03  5.71585e-04  1.04053e-03
       H  2.04392e-03  3.48880e-03 -1.71665e-03
       H -3.23545e-03  1.87664e-03  2.46433e-03
       O  9.13193e-04 -4.21189e-04 -1.52898e-03
       H -2.15233e-03 -1.20463e-03  2.89539e-03
       H -4.35606e-04 -4.10146e-03 -3.20881e-03
       O -7.70532e-04  1.75300e-06 -7.90789e-04
       H  2.87485e-03 -7.89503e-04 -9.35853e-03
       H  4.60546e-03 -4.44728e-03 -2.14413e-04
       O -5.56051e-04 -2.76628e-04 -4.71004e-05
       H -4.60619e-03 -3.50775e-03 -1.41811e-03
       H -1.33037e-03 -2.27218e-03  4.59838e-03
       O -2.46545e-04  5.66696e-04  1.39087e-04
       H  5.48191e-03 -5.95811e-04  1.82311e-03
       H  2.43529e-03  7.60065e-04  9.48628e-04
       O  1.38158e-03  6.63180e-04 -4.93322e-06
       H -6.96558e-04 -4.56062e-03  1.21323e-03
       H  1.43545e-03  2.09442e-03  3.10279e-03
       O  8.98961e-04 -1.03108e-03  1.78305e-03
       H  2.59820e-03  7.63055e-03  9.07030e-05
       H  1.83402e-03 -1.12874e-03 -4.65490e-03
       O -1.97551e-04  2.13685e-04  7.91619e-05
       H  2.64254e-03  3.30962e-03 -4.18133e-03
       H  1.56239e-04  7.92705e-03  3.94010e-03
       O -3.57345e-04  6.11589e-04 -5.93501e-04
       H  2.31675e-03 -2.74379e-03 -4.03828e-03
       H -2.28143e-03 -8.96908e-04  4.74900e-04
       O -3.96224e-04  1.10158e-05  4.68246e-04
       H -1.48506e-03  7.90271e-03  5.61997e-03
       H  4.78481e-03 -7.89308e-03 -1.89520e-04
       O  2.47762e-03  6.27538e-04 -9.15551e-04
       H -7.03097e-04 -1.93053e-03  1.07084e-03
       H -8.90092e-05 -1.94173e-03 -6.78871e-04
       O  7.69187e-04  3.78295e-04 -4.18671e-04
       H  2.33670e-03  3.45766e-04 -7.98703e-04
       H -1.51899e-03 -8.53995e-04  2.17588e-03
       O  9.29277e-04 -1.15414e-04  2.40738e-04
       H  4.82565e-03 -2.42629e-03 -1.73543e-04
       H -2.44688e-03 -6.55189e-04 -5.65832e-03
       O -7.55479e-04  3.13203e-04 -1.43577e-03
       H -3.88437e-03 -2.33161e-03  9.49489e-04
       H  3.91067e-03 -1.84279e-03 -4.95304e-04
       O  2.36352e-04  6.62397e-05  9.67605e-04
       H -4.16074e-03 -9.98770e-03  2.06231e-04
       H  2.43971e-03 -9.18436e-03  7.82002e-04
       O -1.37952e-03 -2.06093e-03 -2.84056e-04
       H  4.55073e-03  4.72090e-03  1.33710e-04
       H -4.88797e-03 -7.55784e-04  3.82441e-03
       O  8.11331e-04 -1.39955e-05  6.33665e-04
       H  2.34873e-03 -4.07345e-03 -4.51638e-03
       H  2.71885e-04  3.28422e-03  5.47087e-06
       O  5.45622e-04 -2.30049e-04  1.89289e-04
       H -4.81275e-03 -5.29620e-03  4.27481e-03
       H  3.35471e-03  7.38818e-04  4.28795e-03
       O  9.59345e-04  5.24528e-04 -1.79654e-04
       H -4.88839e-03 -2.80985e-03 -3.85818e-03
       H -9.51176e-05 -2.51449e-03  2.60995e-03
       O -8.22580e-04  5.96275e-04 -7.39881e-04
       H  1.31997e-03  1.36520e-03 -1.13973e-03
       H -4.10604e-04 -2.89817e-03  2.04992e-03
       O  1.54857e-03  2.99713e-04 -2.04643e-04
       H  3.61740e-03  2.00268e-03  4.60993e-03
       H  3.90981e-03 -2.90308e-03 -1.87333e-03
       O  1.80702e-03  7.33692e-04  3.22092e-04
       H  2.65944e-03 -2.85767e-03  9.25039e-03
       H  2.75753e-03  1.29181e-03  3.70780e-04
       O  6.13907e-04  4.54946e-04  3.32259e-04
       H -2.70268e-03  2.51408e-03 -9.91230e-05
       H -5.00331e-03 -2.93279e-03 -3.35858e-04
       O  2.34230e-03 -1.35718e-03 -6.52700e-04
       H  1.07203e-03  2.76781e-03 -3.48691e-03
       H  3.01959e-03  9.64845e-04  2.34746e-03
       O  2.03543e-04 -7.82676e-04  6.27922e-04
       H  2.07215e-03  1.08974e-02 -4.52373e-03
       H  2.40493e-03 -2.40605e-03 -2.95106e-03
       O  6.06626e-04  5.95846e-04 -1.70585e-04
       H  1.03101e-03 -9.02582e-04 -2.24203e-03
       H  1.21580e-03 -4.05257e-03  2.30255e-03
       O -4.74173e-04 -1.42779e-04  1.61084e-03
       H -7.84598e-04  3.01367e-03  1.35276e-03
       H  3.24586e-05  5.66875e-03  7.62659e-04
       O -5.92547e-04 -8.42457e-04  2.09823e-04
       H  5.35610e-03 -1.89801e-03  4.65679e-04
       H -2.32012e-03 -8.95476e-04  3.49503e-03
       O  4.71334e-04 -5.45405e-04 -1.80310e-05
       H -4.94191e-03  1.38985e-03  6.67708e-03
       H -2.06905e-03 -2.07703e-03  2.86232e-03
       O -5.03764e-04 -4.46505e-04 -5.34722e-04
       H -2.21157e-03  4.73399e-03  4.48580e-03
       H -5.67533e-04 -2.60764e-03  5.67155e-03
       O -2.41810e-04 -2.18227e-04  1.49077e-03
       H  7.04202e-04  3.64636e-04  2.24223e-03
       H  4.45747e-03 -2.82107e-04  1.18861e-03
       O  3.86063e-04  1.71116e-04  1.55985e-03
       H  1.45285e-03 -8.40717e-04  4.59653e-03
       H -3.41981e-04 -5.59314e-03 -7.93610e-03
       O  2.79995e-04  5.41904e-04  3.57913e-04
       H  1.21710e-03 -6.34000e-03  4.30632e-04
       H -2.12039e-03 -7.59552e-04  3.38004e-03
       O  9.17058e-04  2.04999e-03 -1.28631e-03
       H  2.96964e-03 -2.76165e-03 -9.50831e-03
       H  6.33863e-03  4.42453e-04  2.63029e-04
       O  3.56386e-05  4.17249e-04 -7.89586e-04
       H  7.71985e-04 -2.05710e-03  1.96882e-03
       H  7.52435e-04  1.47513e-03 -2.18175e-03
       O -8.03177e-04 -2.91756e-04 -7.19337e-06
       H -2.37858e-03 -1.94155e-04  7.10021e-03
       H  2.40470e-03 -4.70224e-03  2.23634e-03
       O  5.19225e-04 -4.17666e-04  2.54352e-03
       H -1.51316e-03 -6.05845e-03  2.83630e-03
       H  2.93439e-03  2.12818e-04 -2.30302e-03
       O -5.30163e-04  2.44882e-04  2.41335e-03
       H -2.10853e-03 -2.28485e-03  4.24717e-03
       H -5.05045e-03 -1.31832e-03  1.96877e-03
       O  7.62400e-04 -5.12920e-04  4.33056e-05
       H -5.13376e-03 -1.27880e-03  5.28503e-03
       H  3.16717e-03 -1.86369e-03  1.33433e-03
       O  9.85873e-04 -9.03188e-05 -5.39576e-05
       H  3.09075e-03  1.22118e-03 -1.65652e-03
       H  3.82359e-04 -2.06568e-03  1.62120e-03
192
# CELL(abcABC):   16.99620    29.43815    27.67315    90.00000    90.00000    90.00000  Step:          20  Bead:      13 velocities{atomic_unit}  cell{atomic_unit}
       O  1.39218e-03  1.28084e-03  9.85670e-04
       H -2.41259e-03  3.25923e-03 -2.68340e-03
       H -3.75101e-03  2.69542e-03 -1.57598e-04
       O -1.19630e-03 -7.17640e-04 -1.26665e-04
       H  6.09833e-03  5.31667e-03  7.61595e-04
       H -6.19312e-03  3.25903e-03 -1.24298e-03
       O -7.22460e-04  6.79429e-04  5.51346e-04
       H -4.26509e-04 -5.74268e-03 -2.79993e-03
       H -7.79803e-03  1.16484e-03 -1.49527e-03
       O -1.30889e-03 -4.68933e-04  3.14947e-04
       H  5.66916e-03 -1.07214e-03  8.92852e-04
       H -2.78011e-03 -3.34937e-04  4.82762e-04
       O  9.17428e-04 -3.00110e-05  1.34194e-03
       H  2.65232e-03  7.40983e-04 -5.00410e-03
       H -3.04545e-04  5.55560e-03 -1.26810e-03
       O -7.12431e-05 -6.95824e-04 -9.88304e-04
       H -1.73042e-03  1.15051e-03 -2.69477e-03
       H -2.77661e-03 -2.05616e-03 -4.33651e-04
       O -1.19598e-03 -3.77202e-04  3.77290e-04
       H -5.00761e-04 -1.45369e-03  1.65622e-03
       H -1.34596e-03  7.26275e-03 -2.76317e-03
       O  6.95028e-04 -1.07407e-03  7.78319e-06
       H  4.68678e-04 -1.77469e-04 -1.48705e-03
       H -1.72334e-03 -9.81161e-04  3.06069e-03
       O -5.24575e-04  1.21720e-03  1.59318e-03
       H  3.11682e-04 -1.01389e-03 -3.78573e-03
       H  8.13849e-04  3.64848e-03 -4.63705e-03
       O  1.56796e-03  1.01410e-03 -1.12776e-03
       H -7.09526e-03  2.53217e-03 -5.72720e-03
       H  4.37161e-03  2.95295e-03  3.53506e-03
       O -1.60370e-03 -9.04890e-04  6.48004e-04
       H -1.87090e-03 -7.51105e-04 -4.86476e-03
       H  1.40041e-03 -7.00771e-03 -2.89910e-03
       O -2.06118e-04  3.97395e-04  1.11073e-03
       H  1.69476e-03 -1.20357e-03  1.52214e-03
       H  6.41171e-03 -2.82523e-03 -2.09219e-03
       O -3.43464e-04 -1.72964e-03 -6.74392e-04
       H -1.35065e-03 -2.63429e-03 -2.86924e-03
       H  6.05006e-04 -3.62709e-03 -4.01008e-03
       O  7.53681e-04 -2.52451e-04 -7.29377e-04
       H  4.49009e-03  3.20411e-03 -6.96263e-04
       H  4.59829e-03  9.46183e-04  5.70848e-03
       O -1.82046e-04 -3.13690e-04 -1.62940e-03
       H  2.98175e-03  4.99793e-04 -2.60837e-03
       H  6.79625e-03 -2.21212e-03  2.48655e-03
       O -1.24395e-03  1.95810e-03 -1.25067e-03
       H -4.62168e-03  2.78326e-03  7.35087e-04
       H -5.15032e-03 -2.88364e-04  1.67647e-03
       O -9.70412e-04  5.62711e-04  2.73575e-04
       H -1.11664e-03  3.61897e-03 -2.65906e-03
       H -1.72929e-03  5.40361e-03  4.79675e-03
       O -7.27141e-04 -4.45690e-04 -1.29975e-04
       H  7.56158e-03  1.10714e-03  1.68893e-03
       H  3.63681e-04  3.72322e-03  5.30080e-03
       O -1.38962e-03  1.13721e-03  8.82407e-04
       H -2.43755e-03 -3.28186e-03  5.28368e-03
       H -7.83007e-04  1.80909e-03 -3.59315e-03
       O -1.15524e-03  4.57910e-04  7.72838e-05
       H -3.66533e-03  2.14329e-03 -1.20943e-03
       H -2.98418e-03  2.97325e-04 -4.00216e-03
       O -1.31889e-04  9.76750e-04  1.72759e-04
       H -1.15277e-03  1.93134e-03 -7.27670e-03
       H  5.43692e-03 -3.46262e-03 -3.54049e-04
       O  1.15539e-03 -5.37501e-04 -4.37644e-04
       H -2.57697e-03  2.49799e-03 -6.01200e-04
       H  2.09348e-03  3.11508e-03  3.07248e-03
       O  8.43009e-04  1.06204e-04  6.59699e-05
       H -1.72269e-03  8.26504e-04  4.51717e-04
       H  3.50866e-03 -2.85294e-03  4.36082e-04
       O -1.50425e-04 -1.06662e-03 -3.66108e-04
       H  2.84789e-03 -7.70163e-03 -2.71694e-04
       H -8.68354e-04  2.80342e-03  8.01965e-03
       O  3.18412e-04 -8.60722e-04  4.16860e-06
       H -1.24824e-03 -9.37535e-04  1.81523e-03
       H  1.58818e-03  4.50451e-03  6.18564e-03
       O  9.91592e-04  3.86070e-04 -4.99748e-04
       H -7.53306e-04 -3.96877e-03  1.84812e-03
       H -9.97532e-04  1.87782e-03 -1.86390e-03
       O -1.55230e-03 -2.16312e-04 -3.43027e-04
       H  4.88969e-04 -1.38580e-03  3.87837e-03
       H -1.18166e-03 -1.28345e-04  6.79488e-03
       O  8.98092e-04 -3.92347e-04  3.35059e-04
       H -2.21770e-03  1.95684e-03 -1.51988e-03
       H  1.85807e-04 -2.61406e-03 -5.83723e-03
       O  1.60551e-03  6.54800e-04 -9.02842e-04
       H -1.33773e-04 -5.91555e-03  1.92757e-03
       H  1.01657e-03 -5.76237e-04 -2.00829e-03
       O -4.40117e-04  1.89316e-04 -5.33311e-04
       H  8.34704e-04  2.05190e-03 -1.68373e-03
       H  3.96978e-03  2.93317e-03  3.14340e-03
       O -4.22802e-04  7.89169e-04 -1.54730e-03
       H -1.09020e-03 -4.48809e-03 -2.65385e-04
       H  1.11400e-03 -1.02136e-03 -6.39573e-04
       O  1.71394e-03 -1.72734e-04 -1.17806e-03
       H  3.97399e-03 -2.98742e-03  3.22070e-03
       H -2.48750e-03  5.12393e-03 -5.29764e-03
       O  1.33532e-03 -2.26223e-04 -4.36417e-04
       H  1.55950e-03 -2.95504e-03  3.17064e-03
       H  1.56942e-03 -3.65770e-03 -4.05661e-03
       O  7.77672e-04  4.70499e-04 -7.47837e-04
       H  4.33395e-03 -2.49479e-03  2.25230e-03
       H  6.34457e-03  3.02335e-03 -4.00599e-03
       O  6.40748e-04 -2.57656e-04 -1.00392e-03
       H  4.36319e-03  8.39243e-05  1.97528e-03
       H -7.94574e-03 -5.61871e-03  3.74258e-03
       O -7.24586e-04  1.19842e-03  1.03926e-03
       H  1.42044e-03  1.11943e-02 -9.51227e-04
       H  3.66676e-03  9.26209e-04  1.01545e-03
       O -1.25209e-03  1.27923e-03  1.91912e-03
       H -5.04586e-03 -9.64213e-04  3.77156e-03
       H -4.00104e-03 -4.77319e-04 -4.15238e-04
       O -1.41614e-03 -4.22154e-05  1.21749e-03
       H -1.05756e-03 -3.01823e-03 -5.25418e-04
       H  6.46684e-03 -2.98399e-04 -3.81115e-03
       O  2.29474e-05 -9.36058e-04  8.29418e-04
       H  2.60186e-04  6.08297e-03  1.10646e-02
       H -4.77357e-03 -2.19871e-04 -3.40118e-03
       O  7.62085e-04  1.20498e-04  5.07722e-04
       H -4.63071e-03 -4.71182e-04 -1.71975e-03
       H -8.12267e-04  3.21735e-04 -2.67034e-03
       O -6.11320e-04 -1.37510e-03  5.20614e-04
       H -1.58842e-03 -4.69085e-03  3.05271e-03
       H  2.83964e-03 -1.27287e-03 -8.77026e-03
       O  7.89963e-04  1.17134e-03 -1.04261e-03
       H -1.22364e-03  1.60080e-04  3.20655e-03
       H -4.91195e-03  4.51964e-03 -8.98534e-04
       O -2.05211e-04 -9.73140e-05  6.99523e-04
       H -6.39897e-03 -5.92130e-03 -2.67756e-03
       H  6.01678e-03  3.09296e-03  2.04688e-03
       O -9.15944e-04 -9.52549e-04  1.85911e-04
       H  7.15882e-04 -2.80627e-03  6.77744e-03
       H  5.71548e-03 -2.00698e-03 -3.45180e-04
       O -1.59291e-03  1.43294e-03  4.20406e-04
       H  5.82525e-04  4.29598e-03  4.20648e-03
       H -5.96081e-03 -3.69622e-04  2.18726e-03
       O -6.80593e-05 -1.80433e-03  4.36381e-04
       H  4.34822e-03 -4.69992e-03 -2.97855e-03
       H  3.22203e-03 -8.79945e-03  5.94515e-03
       O  9.07453e-04 -2.20211e-03  1.54417e-04
       H  1.37180e-03 -3.70423e-04 -1.51228e-03
       H -1.34526e-03  3.11986e-03 -3.06994e-03
       O -3.68200e-04 -5.86056e-04 -1.89487e-03
       H -1.95697e-03  3.19549e-03  1.54891e-03
       H  7.80885e-03  2.10280e-03  6.05668e-03
       O  3.07134e-04  8.50186e-05  1.45675e-04
       H -1.28290e-05 -1.14774e-03  1.23032e-03
       H -5.41859e-03 -4.93523e-03 -6.75974e-04
       O -1.20229e-03 -2.87252e-04 -7.93439e-05
       H  4.47637e-03 -5.53105e-03  1.23601e-03
       H  9.77807e-04 -1.81727e-03  1.31494e-03
       O  5.33795e-04 -8.53144e-04 -3.91209e-04
       H  8.28162e-04 -1.59739e-03 -2.41545e-03
       H -3.88760e-03  2.98646e-03  8.38316e-03
       O  3.64976e-04 -4.31579e-04 -2.56137e-04
       H  1.36729e-03 -1.62150e-03  7.49460e-04
       H  1.81890e-03 -2.19960e-03 -4.55539e-03
       O  1.99379e-03 -3.49074e-04 -9.94977e-04
       H  1.23336e-03  1.49167e-03 -3.57929e-03
       H  3.59981e-03 -5.98464e-03  8.17390e-04
       O  9.54048e-04 -4.48944e-04  1.06516e-03
       H  1.74592e-03 -4.88272e-03 -1.05870e-03
       H -1.89027e-04 -8.20895e-03 -5.32710e-03
       O -4.99923e-04 -4.05150e-04 -6.20663e-04
       H  3.29379e-03 -1.01095e-02 -2.22762e-03
       H  7.01931e-03  3.60658e-03 -1.40133e-03
       O  4.30227e-04  3.39605e-04 -1.40246e-03
       H  7.59231e-03 -3.78712e-03  2.16382e-03
       H -2.93710e-03  5.56696e-04  8.81129e-04
       O  4.80372e-05  2.88714e-04 -1.08209e-03
       H  3.59983e-03 -1.57234e-03 -1.00844e-03
       H -4.02256e-03  4.02738e-04 -8.20446e-03
       O -2.96031e-04 -1.11788e-03 -6.45896e-04
       H  1.52850e-03 -4.69852e-03 -7.31070e-03
       H -9.64092e-04  3.92709e-03 -7.58401e-03
       O -9.41122e-04  1.98092e-03 -2.04299e-04
       H -5.21240e-03 -2.29155e-03  6.74584e-04
       H -1.88751e-04 -4.98261e-03  4.12936e-03
       O -7.63217e-04 -8.93055e-04 -1.27019e-03
       H  7.73613e-03 -6.55530e-03  7.90598e-04
       H -5.39065e-03  4.20304e-03 -2.62179e-03
       O -8.52430e-04  4.27220e-04  7.25390e-05
       H  4.01628e-03 -2.84642e-03 -2.02058e-03
       H  1.12730e-03  1.64899e-03 -1.73118e-03
       O  1.65224e-04 -1.45016e-03 -7.23022e-04
       H -8.21297e-05  1.94390e-04 -1.33182e-03
       H  1.41006e-03  2.85356e-03 -3.35849e-03
       O -4.42603e-04 -8.64384e-04  8.65482e-06
       H -2.76537e-03 -5.74420e-03 -1.81847e-03
       H  2.33807e-03 -3.79829e-03  3.31502e-03
       O -5.54944e-04 -1.94269e-03  4.93179e-04
       H  4.96026e-03  1.95411e-04  2.19221e-03
       H -1.10677e-03 -5.12747e-03  5.00217e-04
192
# CELL(abcABC):   16.99620    29.43815    27.67315    90.00000    90.00000    90.00000  Step:          30  Bead:      13 velocities{atomic_unit}  cell{atomic_unit}
       O  5.84715e-04 -1.16026e-03  4.32057e-04
       H  1.82544e-03  3.67094e-03 -2.03946e-03
       H  2.44743e-03  1.92733e-03 -3.82311e-03
       O  2.47922e-04 -1.01175e-03 -1.32443e-03
       H -2.01127e-03 -2.35403e-03 -1.75656e-03
       H  3.55674e-03 -1.30661e-03  3.39944e-03
       O -9.94192e-04 -1.07564e-03 -3.24558e-04
       H -1.87074e-03  1.43190e-03  3.37825e-04
       H -1.25182e-03  2.81861e-03  2.70402e-03
       O -1.44584e-04  4.79258e-04 -9.63433e-04
       H -1.27667e-03  3.46675e-04  1.86732e-03
       H  6.17813e-03  1.86944e-03  6.82955e-04
       O  4.33516e-04 -6.40027e-04 -5.41324e-04
       H  3.22246e-03  1.62170e-03 -5.82365e-03
       H -3.04928e-03  1.06448e-03  2.71404e-03
       O  2.38419e-04  1.21433e-03 -1.20310e-03
       H -3.28129e-04  6.09105e-03 -2.16711e-03
       H  6.32431e-03 -1.17776e-03 -7.66122e-04
       O -5.76329e-04 -5.68875e-04  2.70761e-05
       H  5.04799e-04 -8.23373e-03  2.56648e-03
       H -6.39363e-03 -4.89904e-03  8.09898e-03
       O  1.24917e-03 -1.74288e-04 -5.01453e-04
       H  4.97977e-03 -1.14429e-03  4.53623e-04
       H  5.27885e-03  2.12395e-04  4.12124e-04
       O  1.44810e-04  8.85779e-05 -1.18438e-03
       H -1.48846e-03 -2.81235e-03 -2.47728e-03
       H -2.58048e-03  3.55972e-03  2.68012e-03
       O -6.00270e-04  4.76866e-04 -3.73510e-04
       H  3.36504e-03 -3.86265e-03  2.23826e-03
       H -5.83494e-03 -5.36864e-03 -1.02883e-03
       O  1.00483e-03  1.61308e-03 -1.98583e-03
       H -1.67231e-03  2.26479e-03  5.35650e-03
       H  2.61502e-04 -5.31442e-04 -2.69912e-03
       O -1.22153e-03 -1.03005e-03  4.81784e-04
       H  5.82202e-03  3.97783e-03  5.91513e-03