192
# CELL(abcABC):   16.99620    29.43815    27.67315    90.00000    90.00000    90.00000  Step:           0  Bead:       7 velocities{atomic_unit}  cell{atomic_unit}
       O -1.00922e-03  4.31638e-04  1.27173e-04
       H  2.22528e-03  1.58778e-04 -7.98460e-04
       H -2.79717e-03  1.04748e-03 -4.28328e-03
       O  5.01811e-04 -7.43852e-04  4.63105e-04
       H -2.33756e-03 -4.01114e-03  5.65222e-03
       H  1.66452e-03 -1.38169e-03 -1.89755e-03
       O  1.04915e-04 -9.41213e-04  5.79068e-04
       H  2.16491e-04 -3.18379e-03  2.19955e-03
       H -1.92382e-03 -8.43270e-03  3.00512e-03
       O -9.71964e-04  2.83689e-04 -2.63739e-04
       H -3.09161e-03 -2.47466e-03 -2.59974e-04
       H -5.36646e-04  1.22947e-03  7.15247e-04
       O -9.07371e-04  9.57182e-04 -7.78493e-04
       H  1.05067e-05  6.66446e-04 -3.90709e-04
       H -4.84773e-03 -9.48457e-04 -1.43645e-03
       O  3.06724e-04 -4.64153e-04  5.89690e-04
       H  3.27573e-03  2.93664e-03 -1.26505e-03
       H -2.98238e-03  5.67456e-03 -5.48072e-03
       O  5.43617e-05  8.24857e-04  2.19498e-03
       H  1.35048e-03 -1.50699e-04 -4.24843e-03
       H -2.23338e-03  1.48709e-03  2.23336e-03
       O -3.33388e-04  4.32630e-04 -5.10635e-04
       H  1.66480e-03  3.52528e-03  1.14302e-03
       H -4.22011e-03  3.76041e-04  1.95250e-04
       O -8.48407e-04  6.46495e-04  2.41031e-04
       H -2.42388e-03 -4.39646e-03 -6.86427e-03
       H -2.35758e-03 -4.81525e-03 -2.30444e-03
       O  1.41125e-03  1.01971e-03  6.97989e-05
       H -1.56305e-03 -5.62792e-03  2.96791e-03
       H -3.63434e-03 -2.67792e-03 -1.14339e-03
       O -2.35697e-03  8.11670e-04 -2.41170e-04
       H -3.27722e-03 -2.00026e-03 -1.44457e-03
       H -4.74316e-04 -2.14164e-03  7.32095e-03
       O -1.05205e-03 -1.19189e-03 -1.90389e-04
       H  5.28170e-03  3.32181e-05 -5.70203e-03
       H  5.25779e-04 -1.02075e-03  1.02671e-04
       O  3.13258e-04 -6.40716e-04  7.58462e-04
       H -2.26621e-03  1.54692e-03 -4.07886e-03
       H -3.00764e-04  2.18549e-03 -1.88976e-03
       O  1.57988e-03 -7.94391e-04 -1.49031e-04
       H -4.83566e-04 -4.03301e-03 -5.17612e-04
       H  4.35498e-04 -1.63440e-03  9.69409e-04
       O -7.53313e-04 -4.82947e-04  1.05576e-03
       H -5.34740e-03  5.33797e-03 -6.53844e-03
       H -2.56053e-03  1.87850e-03 -7.93917e-03
       O  1.60085e-03  5.59656e-04  1.62886e-04
       H -9.72693e-04 -8.22453e-04 -4.01647e-04
       H  4.05918e-04 -9.30132e-04  4.88011e-03
       O -5.01829e-04  4.23848e-04 -4.05991e-04
       H  1.75341e-03  1.69672e-03  1.11686e-03
       H  1.73909e-03  2.69355e-03 -2.86667e-03
       O -1.21686e-04  9.91589e-04  1.07153e-05
       H -4.69487e-03  5.15540e-03 -3.78845e-03
       H -1.61389e-03  1.97700e-04 -1.69288e-03
       O  1.77980e-03  1.52379e-04  4.54843e-04
       H -9.28344e-04  9.27969e-04  1.27165e-03
       H  4.41440e-03 -4.18280e-03 -9.02516e-03
       O  8.54906e-04 -3.08976e-04  7.41944e-05
       H  1.09560e-03 -3.41541e-04  1.60155e-04
       H -1.90350e-03  5.10815e-03  7.51802e-04
       O  3.80906e-04  1.33857e-03 -1.39126e-03
       H  3.92113e-03 -3.43980e-03  2.27924e-03
       H -4.29524e-03  2.56753e-03 -1.59927e-03
       O  1.98793e-03 -5.95580e-04 -1.10499e-04
       H  2.07002e-03 -4.26895e-04 -3.15583e-04
       H -2.16674e-05 -2.32193e-03  2.69429e-03
       O  6.08961e-04 -4.18536e-04 -1.19594e-03
       H -7.29936e-03 -2.20613e-03  2.91348e-03
       H  3.35551e-05  4.52352e-04 -6.06695e-03
       O -2.32740e-03  2.13723e-04 -2.44761e-04
       H  1.05281e-03  2.84211e-04  1.10672e-03
       H -6.94189e-03  7.61114e-03  2.76354e-03
       O -5.31524e-05  1.76529e-03  1.66128e-04
       H  1.10773e-03 -1.03932e-03 -4.51767e-03
       H -7.75435e-04 -1.91636e-04 -1.83806e-03
       O  4.61897e-04 -1.69860e-03  2.19647e-03
       H -2.03602e-03  2.43751e-03  9.05409e-03
       H -1.35380e-03 -2.66045e-03 -1.28131e-03
       O -3.71292e-04  4.35455e-04 -1.94417e-03
       H  1.34076e-03 -1.68204e-03 -1.53883e-03
       H -1.05291e-03 -1.09925e-03 -8.93986e-04
       O -3.16945e-04 -2.37155e-03  9.46612e-04
       H -5.57601e-03  2.21458e-03  3.08422e-03
       H -3.31591e-03  2.14025e-03 -4.88604e-03
       O -1.98116e-03 -4.06574e-04  1.84169e-04
       H -6.42870e-04  3.79030e-03  6.91537e-03
       H  2.86851e-03  7.73365e-04 -1.43168e-03
       O -1.53538e-03 -7.80149e-04 -4.57293e-04
       H -3.63462e-03  1.31773e-03 -1.85357e-03
       H  1.26904e-03  8.29088e-03  2.14540e-03
       O  8.51698e-04  1.09746e-03 -4.89169e-07
       H -1.54430e-03  1.84234e-03 -2.73913e-04
       H  3.22522e-03 -1.39821e-03  9.61236e-04
       O  3.93085e-04 -1.84860e-04 -6.37479e-04
       H -7.67588e-04  1.33349e-03 -1.02669e-04
       H -3.34324e-03 -1.10307e-03  2.71379e-03
       O  9.07149e-04  9.66568e-04 -7.71942e-04
       H  2.41178e-03  1.69708e-03  4.52604e-03
       H -3.76429e-03  1.94629e-03  5.92388e-03
       O -2.99047e-04 -9.26513e-05  9.96230e-04
       H -1.48124e-03 -1.94590e-06  6.82455e-03
       H -2.23065e-03 -2.83993e-03 -3.67744e-03
       O -4.67038e-04  9.51846e-04  8.09570e-04
       H -4.46749e-03 -2.36314e-03 -2.41906e-03
       H -3.06604e-03  4.32208e-03  3.04178e-03
       O  1.07131e-04 -8.89323e-05 -6.31548e-05
       H  1.99377e-03 -2.06919e-03 -3.70567e-04
       H -4.24036e-03  1.59455e-03  2.97573e-03
       O  1.24015e-03  8.35513e-04  9.03410e-04
       H  2.16410e-03  7.02175e-04 -1.19728e-03
       H -2.44033e-03 -5.45463e-03 -2.58029e-03
       O  6.76734e-04 -2.09625e-03 -1.15564e-04
       H -1.35395e-03 -7.91210e-04 -3.34947e-03
       H -4.64215e-04  2.55378e-03 -2.81944e-03
       O -3.81502e-05  1.26233e-03  6.70837e-06
       H -2.41858e-03 -5.58005e-04 -3.09690e-03
       H -7.51033e-04 -4.64551e-03 -2.59314e-03
       O -1.01070e-03  5.37124e-04  6.04250e-04
       H  3.75822e-03 -1.79186e-03  2.62360e-04
       H -2.50316e-03 -2.47972e-03 -8.13258e-03
       O -4.59452e-04 -1.05861e-03  4.81427e-04
       H  2.10286e-03  2.58270e-03 -3.90298e-03
       H -2.33000e-03  1.77814e-03 -1.38694e-03
       O  1.89426e-03 -9.67737e-04  9.14256e-04
       H  7.46722e-04 -4.08446e-04  2.47409e-03
       H -2.60516e-03  3.78725e-03  2.21305e-03
       O -4.83128e-04 -5.93137e-04  1.13458e-03
       H  1.06437e-03 -3.71611e-03 -2.65812e-04
       H -4.83031e-03 -2.88147e-03  5.07619e-03
       O  1.67083e-04  8.48573e-04  6.07693e-04
       H  1.64828e-03 -8.45468e-04 -2.05281e-03
       H -4.69600e-03 -1.43342e-03 -2.30736e-03
       O -9.21805e-04  1.70067e-03 -9.12213e-04
       H -6.25949e-03  2.70577e-03 -2.04754e-03
       H -5.01264e-03  4.22964e-03  2.60440e-04
       O  1.71391e-03  4.93521e-04  1.70248e-03
       H -8.34970e-04 -5.75070e-03  2.40189e-03
       H  1.38045e-03 -3.23911e-03 -1.18891e-03
       O -3.93294e-04 -6.41454e-04  3.65890e-04
       H  1.87158e-03 -3.60766e-03 -2.93824e-03
       H -3.56585e-04 -5.70677e-03  5.61308e-04
       O  5.07234e-04  6.49003e-04 -3.98162e-04
       H  6.83103e-03  6.43256e-03  9.45959e-04
       H -2.87294e-04  4.66429e-03 -1.43058e-03
       O  3.19480e-04  2.23323e-04  1.94966e-05
       H -6.40031e-04 -2.53310e-03 -4.82616e-03
       H  1.01794e-03  4.20560e-03 -3.89644e-03
       O  1.13297e-05 -9.06710e-04 -9.25214e-04
       H  1.87419e-03 -3.29463e-03  5.96287e-03
       H  2.06581e-03 -4.92849e-03 -3.62085e-03
       O  4.42876e-04  1.35474e-03 -1.71874e-04
       H -2.24928e-03  5.36079e-03 -2.16527e-03
       H  1.33013e-03 -5.49373e-03 -1.97503e-03
       O -4.29396e-04 -1.16765e-03  5.18213e-04
       H -4.47658e-03  2.99972e-03 -1.09067e-03
       H  5.29459e-03  2.46584e-05 -6.01627e-03
       O -1.50978e-04 -1.10717e-03  3.77122e-05
       H  6.29043e-03  4.85700e-03 -1.61539e-03
       H -7.04735e-03 -1.02249e-03  1.13081e-03
       O  1.01000e-04 -1.84896e-03 -9.00891e-04
       H -1.25005e-02  3.27184e-04 -4.22080e-03
       H  1.06357e-03 -9.71351e-04  2.07548e-03
       O -6.03945e-04  4.70106e-04 -1.62706e-04
       H  1.64940e-03 -8.24367e-04 -1.06296e-04
       H  1.06909e-03  8.41017e-04  2.90218e-03
       O -1.07762e-03  5.21707e-04 -3.12621e-04
       H  3.50654e-03  7.53981e-03 -1.21184e-03
       H -5.96238e-03 -4.04245e-03  6.01137e-03
       O -2.32818e-03 -1.45027e-03 -1.54034e-03
       H -8.36422e-04 -3.03529e-03  2.81656e-03
       H  4.04127e-03 -7.95914e-03  4.34217e-03
       O -7.93710e-04 -6.33302e-04 -6.56430e-04
       H  4.34920e-03 -9.18948e-04  5.75451e-04
       H -6.94125e-05  1.19632e-03  4.50209e-03
       O -5.63201e-05  7.11517e-04 -1.48888e-03
       H -2.68461e-03 -1.75105e-03  8.12569e-05
       H -4.32964e-03  3.70596e-03 -4.30950e-04
       O  1.69151e-03 -2.27989e-04  1.05717e-03
       H  3.17880e-03  2.62703e-03  6.03942e-04
       H -3.32352e-03 -1.00113e-02  1.17350e-04
       O -1.25739e-03 -4.31530e-04 -1.19883e-04
       H -2.89701e-03 -3.67721e-03  3.87266e-04
       H  9.81812e-03  1.52589e-04  2.93280e-03
       O -3.75786e-04 -4.66339e-04  5.08424e-04
       H  1.62720e-03 -5.40380e-03 -6.60338e-03
       H  3.77583e-04  5.62151e-04 -1.29194e-03
       O  1.01142e-03  9.17596e-04  2.73538e-04
       H  2.09787e-03 -4.64804e-04 -5.26147e-04
       H  1.81932e-03  1.34461e-03 -4.09552e-04
       O  3.98882e-04 -5.78450e-04 -2.26016e-04
       H  5.37198e-04  2.64830e-03 -6.31868e-03
       H -2.49593e-03 -6.51295e-03 -3.74014e-03
192
# CELL(abcABC):   16.99620    29.43815    27.67315    90.00000    90.00000    90.00000  Step:          10  Bead:       7 velocities{atomic_unit}  cell{atomic_unit}
       O  1.56801e-04 -1.03137e-04  1.44512e-03
       H -3.46271e-03 -6.57722e-04  1.65527e-03
       H  6.66119e-03 -5.21315e-03 -4.79809e-03
       O -1.67710e-04 -1.20153e-03 -2.91049e-05
       H -3.56631e-03  4.25675e-03  5.89717e-04
       H -2.22833e-03 -4.65552e-04 -3.13062e-05
       O -5.29386e-04  1.70463e-05  1.23669e-03
       H  1.88871e-04 -1.83330e-03  1.52834e-03
       H -9.42312e-03  5.77957e-04 -1.60342e-03
       O -1.57903e-03  1.14815e-04  1.12195e-04
       H -1.78216e-03 -2.72432e-03 -3.15523e-03
       H -2.48549e-03 -1.38537e-03  2.40129e-03
       O  1.27165e-03  2.29074e-04  1.04099e-03
       H  2.04862e-03 -1.52051e-03  2.20772e-03
       H  2.17283e-03 -4.31225e-03 -8.07865e-03
       O  3.34340e-04 -5.17262e-04 -8.83207e-04
       H  4.69650e-03 -8.09667e-04  3.94697e-03
       H  8.48516e-03  1.94891e-03 -8.47909e-04
       O  1.28209e-03  2.04287e-05 -3.82926e-04
       H -2.86138e-03 -4.81848e-03  5.21952e-03
       H -1.82359e-03 -2.32032e-03 -1.92481e-03
       O  1.89904e-04 -2.09004e-04 -3.39558e-04
       H -2.92866e-04  1.75714e-03 -4.15837e-03
       H -2.37239e-03 -1.79867e-03  6.99344e-03
       O -2.16938e-04  3.17186e-04 -5.55791e-05
       H -2.13126e-03 -1.56605e-03 -2.01386e-03
       H  1.95474e-03 -5.54904e-04 -2.24124e-03
       O  1.14146e-03  5.70839e-04  1.22809e-06
       H  3.29801e-03  4.34754e-03  5.71834e-04
       H  6.10748e-05  1.78684e-03 -2.01578e-03
       O -1.65304e-04  2.71296e-04  1.10660e-04
       H -3.00285e-03 -1.30097e-03  2.31126e-03
       H  1.21853e-03 -9.79881e-04 -4.25442e-03
       O  4.46078e-04  6.55197e-04 -1.14908e-03
       H  5.29232e-03  3.84789e-03  1.23291e-03
       H -3.76950e-03 -1.62638e-03 -6.43213e-04
       O -2.37272e-04  7.28907e-04 -9.42295e-05
       H  3.15952e-03 -1.10325e-03 -4.54187e-03
       H  5.02128e-03  3.51834e-03  7.17598e-03
       O  1.68268e-03  2.69870e-04 -4.92663e-04
       H -2.74176e-03  1.24828e-04  9.02518e-03
       H  2.57284e-03  2.32590e-03 -3.49153e-03
       O -1.05520e-03  3.36391e-04  1.77086e-03
       H -5.05596e-03  2.74707e-03  6.94490e-03
       H -3.35909e-03 -2.03187e-03  1.10295e-02
       O  7.54904e-04  3.53375e-04  5.49664e-04
       H -7.31306e-03 -3.87063e-04  4.90482e-04
       H  1.16076e-03 -6.98845e-03 -6.86882e-03
       O -1.12395e-03  8.47237e-04  6.22633e-04
       H  1.52119e-03 -1.03304e-03 -3.89124e-03
       H -2.93617e-03 -7.41255e-03  2.59739e-03
       O  5.13382e-04 -7.83888e-04 -8.33666e-04
       H  6.53039e-04  2.14546e-04 -1.81300e-03
       H -4.69991e-04 -1.16451e-03  1.34331e-03
       O  5.41638e-04  7.79148e-04  1.56050e-03
       H  9.17328e-04 -9.73633e-04 -3.72248e-04
       H  9.73378e-04  1.33434e-04  4.20893e-03
       O -1.67454e-03 -2.42406e-04  8.85736e-04
       H  1.48918e-03  7.27360e-03 -2.87403e-03
       H -7.37654e-03  4.78368e-04  4.47666e-04
       O  7.54507e-04 -1.85667e-04  1.69510e-04
       H -3.43810e-03  5.37852e-03 -2.48408e-03
       H  1.77928e-03 -9.97242e-04  1.08734e-03
       O  5.54846e-05  4.92923e-04  5.23117e-04
       H  1.34554e-03  9.73555e-03 -1.35514e-03
       H  3.15518e-03  8.14083e-03  2.69901e-03
       O  4.21683e-04  3.53477e-04  1.05723e-03
       H  6.46377e-03  2.50723e-03 -8.59734e-03
       H  6.63876e-04 -3.71212e-03  1.55554e-03
       O  1.40381e-03 -1.59813e-03  2.68760e-04
       H -5.52041e-03  2.50357e-03 -5.63272e-03
       H -4.51290e-03  9.83489e-03 -1.89795e-03
       O  9.31216e-05 -4.93276e-04  1.20176e-03
       H -4.43224e-03 -5.88700e-04  1.65569e-03
       H -1.53895e-03 -2.60693e-03  5.63312e-03
       O  6.93271e-04  8.52436e-04 -1.09133e-03
       H  1.49272e-03 -3.11249e-03  3.34696e-03
       H  2.95888e-03 -1.98791e-03 -7.28880e-03
       O -7.84542e-04 -1.46743e-03 -6.03918e-04
       H  1.33191e-04  3.98895e-03 -7.71147e-04
       H -5.44334e-03 -1.69534e-03 -1.71440e-04
       O  1.50124e-03  7.15576e-04  1.05852e-03
       H  3.68658e-03 -4.08887e-04 -3.66332e-03
       H  5.46794e-03 -8.43239e-03  7.96263e-04
       O -9.32441e-04  4.02465e-04  4.79370e-04
       H -1.72228e-04  1.33542e-03 -5.03110e-03
       H  1.02076e-03  5.14986e-03  6.50490e-04
       O  4.07785e-04 -7.73131e-04 -1.27744e-03
       H  3.62464e-03 -1.77884e-03 -3.50812e-03
       H -5.12452e-03 -7.53970e-03 -2.78120e-03
       O -1.59018e-03 -1.23220e-03  9.52313e-04
       H  9.36201e-04  3.81786e-03 -7.16047e-05
       H  5.66658e-03 -2.81339e-03  6.34009e-04
       O -1.03045e-03 -2.46801e-04 -4.24377e-04
       H  3.02146e-03  6.56870e-03 -3.34209e-03
       H -4.58201e-03  4.10675e-03  6.12142e-03
       O  7.33871e-04  3.32839e-04 -1.52700e-04
       H -8.57533e-04  3.27358e-03  7.19926e-03
       H -2.19933e-03  5.59871e-05 -2.10286e-03
       O  9.15610e-04 -5.91120e-04  6.71186e-04
       H  1.15930e-03  5.17482e-03  6.31783e-03
       H  2.54606e-03 -4.43591e-04  3.52097e-04
       O -9.11439e-05 -3.92513e-04 -1.02042e-03
       H -2.73613e-03  9.85112e-04  8.49535e-04
       H  2.57336e-03 -7.48303e-03  7.23933e-04
       O -5.76149e-04  9.39584e-04 -2.87997e-04
       H  1.72186e-03  6.82254e-03  4.18466e-03
       H  8.85830e-04 -1.25710e-03 -2.12395e-03
       O -1.39720e-03  8.83878e-04  1.52585e-03
       H -2.89326e-03  3.15796e-03 -3.86500e-03
       H -3.56862e-03 -4.57557e-03 -4.14631e-04
       O -9.46948e-04 -2.80895e-04 -2.81874e-04
       H  6.80924e-03 -7.60730e-04 -4.81486e-03
       H  3.42990e-03  2.06186e-03 -3.78972e-03
       O -5.78792e-04 -2.17739e-04  1.44712e-03
       H -6.39069e-03 -6.85254e-03  1.04075e-03
       H -7.72084e-04 -3.67235e-03 -4.92674e-04
       O -1.05979e-03 -1.08837e-03 -1.09160e-03
       H  6.77557e-04 -2.78344e-03 -5.76883e-03
       H  4.75126e-03 -5.32179e-04  3.55836e-03
       O  1.78811e-04 -1.32161e-04 -1.02457e-03
       H -5.27278e-03 -9.17553e-04 -3.35879e-03
       H  2.38849e-03  3.52269e-03  5.00673e-03
       O -6.26361e-04  7.06050e-04  5.14063e-04
       H -1.02307e-03 -1.15856e-03 -5.23725e-05
       H  5.92827e-03 -5.52417e-04 -4.30986e-03
       O  1.08434e-03 -1.35102e-03 -9.85805e-04
       H  4.06907e-03 -4.09136e-03  2.67952e-03
       H -5.88191e-04 -1.48205e-03 -2.06987e-03
       O -9.12706e-05  1.54659e-04  4.97056e-04
       H -5.81321e-03 -2.21048e-03  2.52194e-03
       H -2.62217e-04  3.19358e-04 -4.75551e-03
       O -6.81663e-04  1.23903e-04 -1.16215e-03
       H -2.34321e-03  1.70360e-03  5.73896e-03
       H -4.20820e-03  8.63480e-03 -4.15784e-03
       O  5.44379e-04 -3.50239e-04  3.95827e-04
       H  2.64368e-03  1.01270e-02 -6.19274e-03
       H  9.66776e-04  2.34862e-03 -8.01043e-04
       O  2.06752e-03  9.45945e-04 -2.07901e-04
       H -1.19826e-03  6.39209e-03  6.87444e-03
       H  2.06664e-04  3.22485e-03 -1.81931e-03
       O -1.61082e-04 -9.21500e-04 -2.69109e-05
       H -8.08290e-04 -5.63294e-03  5.63822e-03
       H -2.83195e-03 -3.50315e-03  1.85076e-03
       O -1.27747e-03 -8.71018e-04  1.16957e-03
       H -5.77889e-03  2.81834e-03 -3.19585e-03
       H -3.49054e-03  3.84505e-05 -6.06286e-03
       O  2.11921e-03 -1.23021e-03  6.56886e-04
       H  2.38251e-03 -2.43708e-03  4.20271e-03
       H -3.35412e-04 -4.85469e-04  2.11262e-03
       O  3.06011e-04 -5.34686e-04  1.24413e-03
       H  4.15585e-03 -7.62506e-03 -4.69974e-04
       H -1.72320e-03 -6.12760e-04  2.09044e-03
       O -4.93255e-04  1.49611e-03  8.02813e-04
       H  5.51460e-03 -4.06159e-03 -1.63006e-03
       H -1.41088e-03  2.58059e-03  5.76355e-03
       O  4.91180e-04  1.15487e-03  5.93251e-04
       H  1.92540e-03  2.28985e-03 -6.44504e-04
       H  2.96359e-03 -1.58094e-03  3.10586e-03
       O -5.52250e-04  1.05074e-03  1.10188e-03
       H  4.89572e-03 -6.08725e-03  4.51831e-03
       H  3.73645e-03 -5.70001e-03 -3.81187e-03
       O -3.21206e-04 -8.65174e-05  8.78235e-04
       H  1.05632e-03  9.83714e-04 -6.74136e-03
       H  8.15161e-04  3.40238e-03 -7.02115e-04
       O  2.65428e-04  6.07310e-05  1.89513e-04
       H  5.70201e-04  1.19722e-03  2.23308e-03
       H  1.92877e-03 -3.09556e-03  8.22036e-04
       O  1.09026e-03 -9.83563e-04 -2.00546e-04
       H -1.07983e-04  4.36651e-03  1.11900e-03
       H -2.29673e-03 -4.07803e-04  1.29469e-03
       O -1.04231e-03 -1.74535e-03  1.18640e-03
       H -5.19419e-04  3.05488e-06  1.41220e-04
       H -1.54715e-03  4.85451e-03 -2.40735e-03
       O -8.07379e-04 -1.04369e-04 -1.13139e-03
       H -1.40850e-03 -6.24904e-03  2.20754e-03
       H  1.21010e-03 -5.24275e-03 -1.74232e-03
       O  6.92301e-04  1.93593e-05 -6.61098e-04
       H -1.65123e-03 -2.92486e-03  1.29831e-03
       H  1.83428e-03 -9.26267e-04  3.91814e-03
       O  6.78040e-04  2.23428e-04 -6.13652e-04
       H -1.09868e-03  5.89910e-04 -4.85966e-03
       H -1.04814e-03  5.13905e-03 -1.11216e-03
       O  4.58172e-04 -1.55477e-03  1.31102e-03
       H -3.55020e-03 -4.18742e-03 -2.96085e-03
       H  2.73265e-03  6.02444e-03  2.06910e-03
       O -1.35544e-03 -6.04794e-05  1.07956e-03
       H  2.23425e-05 -2.16119e-03 -5.67010e-04
       H  3.80630e-04 -4.12311e-03 -8.63889e-04
       O  1.57467e-03 -2.64817e-04 -1.09247e-03
       H  3.02171e-03 -4.83240e-03  3.37179e-03
       H -1.17596e-03 -3.26724e-03  8.00720e-04
192
# CELL(abcABC):   16.99620    29.43815    27.67315    90.00000    90.00000    90.00000  Step:          20  Bead:       7 velocities{atomic_unit}  cell{atomic_unit}
       O -7.34763e-04  1.14140e-03  1.39878e-03
       H -5.81492e-03  2.35969e-03  6.29670e-04
       H -3.08047e-03 -2.44009e-03 -7.66548e-04
       O -1.78268e-04 -2.25811e-04  9.39166e-04
       H -5.56170e-03 -2.36397e-03  5.00905e-03
       H  8.11158e-04 -2.08194e-03  6.97140e-03
       O  9.17932e-04  8.60840e-04 -9.08505e-04
       H -4.84728e-03 -3.37822e-03  1.78063e-03
       H  1.96264e-03 -3.57946e-04 -3.84880e-05
       O -4.32150e-05  3.05453e-04  9.20457e-04
       H -4.50358e-03  2.60222e-03  2.11335e-03
       H  7.14336e-03  1.36306e-03 -2.02055e-03
       O -7.08087e-04 -4.07994e-04  6.85732e-04
       H  3.72246e-03  3.23894e-03 -1.28149e-03
       H  2.97630e-03  1.86780e-03  6.18733e-03
       O  4.86267e-04  1.86601e-04 -2.63408e-04
       H  2.13138e-03  7.42018e-03  3.02969e-03
       H  1.73150e-03 -3.79817e-03  1.26884e-03
       O -2.97607e-05 -5.17243e-04  3.64664e-03
       H -1.71332e-03  9.19258e-03 -4.79033e-03
       H -8.93561e-04 -2.62746e-03 -5.70717e-03
       O  2.30784e-04 -6.86655e-04  4.69664e-04
       H  4.17714e-03  4.59911e-03  8.40545e-04
       H -1.05341e-02  7.44047e-03  2.42125e-04
       O -7.67593e-04  8.28018e-04 -4.68199e-04
       H  7.19071e-03  8.36016e-05 -3.96448e-04
       H -2.85471e-03 -6.75466e-04 -6.17606e-04
       O -9.87344e-04 -1.10531e-03  1.31810e-03
       H -2.57164e-03 -7.09318e-03 -2.49358e-03
       H  5.14023e-03 -2.98533e-03  2.94896e-03
       O -3.58296e-04 -5.19644e-04 -1.28463e-03
       H -3.26234e-03 -2.44715e-03  1.77034e-04
       H  1.56175e-03 -3.95717e-03  2.21779e-03
       O -6.83090e-05  2.07167e-05  2.39180e-04
       H  3.41929e-04  3.59492e-03 -3.44386e-03
       H -3.26835e-03  3.96247e-03  2.55048e-03
       O  5.85666e-04  5.56483e-04  1.95541e-04
       H  2.30908e-03 -1.24895e-03  2.09676e-03
       H -1.47583e-03  9.59030e-04 -6.89998e-04
       O -8.10385e-04  2.61427e-03 -1.23003e-03
       H  2.45519e-03  3.62905e-03 -2.68719e-03
       H -7.60827e-04 -5.27174e-04 -3.12926e-04
       O -1.63112e-03  6.09114e-05 -3.59646e-04
       H -3.26718e-03  6.68578e-04 -3.56558e-03
       H  1.71788e-03 -2.71942e-04 -3.91905e-03
       O  1.68716e-03 -1.08954e-04  1.95756e-04
       H -8.80643e-04  2.42699e-03 -2.79532e-03
       H  4.92521e-03  4.97722e-03  5.97362e-03
       O  1.22110e-03 -4.57123e-04  2.86826e-05
       H -5.79346e-03 -4.28810e-04  4.87248e-03
       H  8.27080e-03  2.30804e-03 -2.70695e-03
       O -7.09242e-04  4.03489e-04  6.20612e-04
       H  8.07841e-04  3.70785e-04 -1.10698e-03
       H -1.03760e-03 -1.33220e-03 -4.87414e-03
       O  8.69131e-04  8.50651e-04  4.06879e-04
       H -4.27616e-03  7.10582e-03  4.47633e-03
       H  4.91976e-03 -4.97656e-03  1.25878e-03
       O -4.20591e-04  8.56284e-04 -2.41350e-04
       H -6.21447e-03  3.67736e-03  9.99399e-04
       H -4.79064e-03  2.12002e-03  2.21341e-03
       O  9.18434e-04  5.11827e-04 -1.72031e-04
       H -4.21260e-03 -4.54863e-04 -5.26339e-03
       H  6.04266e-03 -1.17164e-03 -9.82310e-04
       O -3.93533e-04 -3.90815e-04  9.03181e-04
       H  1.96150e-03  4.76238e-03  3.24489e-03
       H -1.10884e-02 -7.02278e-03 -1.68371e-03
       O  2.40100e-04  1.77849e-04  2.27460e-03
       H  1.80775e-03 -1.66343e-03  3.48520e-03
       H  4.87187e-06 -4.25075e-03  2.21503e-03
       O -6.99761e-04  8.41839e-04  1.23958e-03
       H  1.01341e-03 -2.82344e-03 -2.79605e-03
       H  4.83177e-03 -2.68039e-03 -2.44176e-04
       O  1.20617e-03 -1.23000e-03  2.74408e-04
       H  5.84195e-04 -4.11897e-03  4.56768e-03
       H  1.98551e-03  3.88119e-04 -1.98794e-03
       O -9.80180e-04 -1.97256e-03  4.35918e-04
       H -2.13679e-03  5.09318e-03  7.59412e-03
       H  7.63844e-04  9.37719e-04  6.15385e-03
       O  3.59105e-04  5.40083e-04 -5.00620e-04
       H  3.95322e-04  1.98264e-03 -3.73540e-03
       H -1.67314e-03  6.61080e-04  2.80569e-03
       O -2.23130e-03  4.24106e-05 -4.80202e-04
       H -2.36414e-03  1.01264e-03  2.46367e-03
       H  4.05492e-04  4.83798e-03  2.17294e-03
       O  4.36807e-04  3.81744e-04 -1.27539e-03
       H  4.19766e-03 -2.63862e-03 -2.25262e-03
       H  2.45751e-03  1.06685e-04  4.35837e-05
       O  1.12075e-03  2.83090e-04  1.65191e-03
       H -3.32314e-03  3.07009e-03  3.11725e-03
       H  2.92475e-03 -1.81975e-03 -1.28735e-03
       O  1.01406e-03 -6.40369e-06 -1.77869e-03
       H -5.24307e-03  2.90612e-03 -1.05879e-04
       H  3.89840e-03  8.97476e-04 -2.25937e-03
       O -1.37756e-03  3.73166e-04 -4.23028e-04
       H  6.97634e-04  1.65440e-03  3.35386e-03
       H  5.11353e-03 -1.16550e-03 -1.97433e-03
       O  1.18806e-03 -1.18922e-04 -6.61499e-04
       H  6.65192e-03  1.15851e-03  4.55200e-04
       H  1.55718e-03  2.57468e-03 -1.66923e-03
       O -4.42775e-05 -1.58268e-03 -2.11351e-04
       H  3.46126e-03 -1.36473e-03  4.75325e-03
       H -3.21619e-03  1.34327e-03  4.07692e-04
       O  1.45213e-03  1.00999e-03 -8.52692e-04
       H -8.83298e-04 -4.55122e-03 -8.74670e-04
       H  5.24271e-04 -2.11131e-03  1.50265e-03
       O -1.37334e-03  1.06345e-04  4.18714e-04
       H  4.46958e-04 -1.97592e-03 -2.48398e-03
       H  2.29495e-03  8.45891e-04  3.01530e-05
       O -8.50515e-04  5.57934e-04 -2.00723e-03
       H  7.49099e-04  2.35279e-03 -6.09804e-04
       H -5.17233e-03 -8.45273e-03  5.37365e-04
       O  3.72313e-04 -1.37066e-03  1.70980e-03
       H  4.35335e-03 -6.01643e-03  2.70233e-05
       H -4.83965e-04  2.49850e-03 -3.03436e-03
       O -6.78768e-04 -1.86827e-03 -5.28720e-04
       H  3.74128e-04 -1.66141e-03  3.97423e-03
       H  4.18359e-03  2.54493e-03  1.03740e-03
       O  2.32053e-03  7.52151e-04  2.75725e-04
       H -7.71331e-04 -3.11452e-03  4.97462e-03
       H  4.48002e-03  3.73144e-03 -8.05368e-04
       O  5.70079e-04 -8.79938e-05 -2.06441e-04
       H -5.72842e-03  4.66004e-03  3.15576e-03
       H -1.81675e-03 -3.15162e-03  2.70576e-03
       O -6.56841e-04 -2.77874e-05 -8.53026e-05
       H  4.16580e-03  5.24969e-04 -1.71297e-03
       H -1.05077e-03 -2.32634e-03 -7.49854e-03
       O  1.34844e-03  7.40827e-04  8.33284e-04
       H -7.68658e-05  3.38259e-03 -1.34330e-03
       H  8.53397e-04  2.48444e-03 -7.59795e-05
       O  1.88189e-03 -5.63828e-04  1.34095e-04
       H -3.49399e-03  6.68642e-03  3.84711e-03
       H  5.35117e-03  7.94054e-04 -2.25422e-03
       O -2.63822e-04 -3.29206e-04 -3.38871e-04
       H -2.44836e-03  6.03506e-04  3.13269e-03
       H  2.24270e-03 -1.85484e-03 -2.38188e-03
       O  4.28876e-04 -4.29104e-04 -2.15695e-03
       H  3.01820e-03 -2.84252e-03 -2.76806e-03
       H -2.17165e-03  1.13173e-03  1.16653e-03
       O -1.10792e-03 -2.14841e-04 -6.34793e-05
       H -6.99101e-04  4.22353e-03 -1.23478e-03
       H  3.08777e-03 -2.06484e-03  6.40748e-03
       O -1.95137e-04  7.11490e-05 -4.62813e-04
       H  3.37414e-03 -1.93293e-04 -3.18328e-03
       H  3.83744e-03 -1.28709e-03 -1.71880e-03
       O  8.81166e-04  3.48454e-05 -4.17393e-04
       H -2.92508e-03 -7.79900e-04  5.30474e-05
       H -3.66686e-03  4.54570e-03  1.29347e-03
       O -1.21944e-03  1.37505e-04 -8.78082e-04
       H -2.44648e-03 -3.98083e-03 -2.10391e-04
       H -4.49877e-03 -2.65095e-03 -4.92907e-03
       O  1.17999e-03  7.08738e-04  1.26577e-03
       H  3.68571e-03  3.02772e-03  4.80379e-03
       H -4.74912e-03  8.28329e-03  3.16985e-03
       O  7.26721e-04 -3.78763e-04  1.21805e-03
       H  3.47948e-03  3.43059e-03  7.17500e-03
       H -6.71969e-03 -1.30300e-04  1.70239e-03
       O -3.32805e-04 -7.29163e-04  3.06228e-04
       H -2.03018e-03 -4.54994e-03 -4.66594e-04
       H -1.62267e-03  2.87225e-03 -1.01258e-04
       O  4.54536e-04  7.61944e-04 -5.89473e-04
       H  8.12027e-04 -1.44425e-03  2.52534e-03
       H  3.16640e-03 -1.76563e-03  5.67018e-03
       O  6.43618e-04  2.58847e-04  5.07787e-04
       H -1.18039e-03 -2.51577e-03  3.99911e-03
       H  9.28905e-04 -4.25884e-03  2.25166e-03
       O -5.59589e-04 -1.68948e-03  1.99068e-03
       H  5.78121e-04 -1.21567e-03  1.01839e-04
       H -2.43664e-03  1.58383e-03  3.36367e-03
       O -1.38875e-03 -7.66961e-04  6.31852e-04
       H  3.68553e-03  8.23280e-04  4.95786e-03
       H -6.76456e-04 -1.63421e-04  3.76069e-03
       O -8.60891e-05 -2.59159e-03  9.64013e-04
       H  3.99088e-03  1.82704e-03 -2.54989e-03
       H  1.06974e-03 -2.74456e-03 -5.50043e-03
       O -1.40566e-05 -1.18442e-04  7.40910e-04
       H -2.77763e-03 -1.97475e-04  2.22180e-03
       H  4.04887e-03  3.19738e-03 -6.37771e-04
       O  3.00082e-04 -3.81949e-05 -2.17208e-04
       H  1.22913e-04  3.48339e-04  7.08816e-03
       H -3.45206e-04 -4.33164e-03 -4.46643e-03
       O -1.04225e-03 -2.16203e-04  4.95286e-04
       H  1.93684e-03 -1.34801e-03 -3.37654e-03
       H  5.78278e-03  7.07054e-03  1.07303e-03
       O -1.52294e-03 -8.11811e-04 -3.29041e-04
       H -2.00809e-04  3.68522e-03  2.02044e-03
       H -1.25120e-03  7.69581e-03 -2.41883e-03
       O  2.11495e-04  8.41662e-04 -1.56933e-03
       H  5.49182e-04 -3.60591e-03  1.07979e-03
       H  4.29130e-03 -1.42636e-03 -4.71784e-03
       O  1.12942e-03  4.49641e-04  3.89404e-04
       H -1.57610e-03  6.59938e-03  8.80660e-04
       H -2.88318e-03  4.84988e-03  6.31214e-03
192
# CELL(abcABC):   16.99620    29.43815    27.67315    90.00000    90.00000    90.00000  Step:          30  Bead:       7 velocities{atomic_unit}  cell{atomic_unit}
       O -1.86146e-04 -5.49255e-04  1.72469e-03
       H -4.65243e-04 -1.39557e-03 -1.12133e-03
       H -6.29561e-03 -1.52412e-04 -3.97482e-03
       O  9.29914e-04 -8.19735e-04 -4.36460e-04
       H  5.63031e-03  5.50400e-03 -4.06173e-03
       H -4.11733e-03  2.93006e-03  2.24471e-03
       O -1.90761e-04  1.71925e-03 -1.13837e-03
       H -7.39334e-03 -1.19505e-03  9.43786e-03
       H  1.94221e-03  2.03917e-04 -1.88048e-03
       O -7.56938e-04 -7.43091e-04  5.11792e-04
       H  5.38691e-04 -3.30165e-03 -2.16517e-03
       H -2.46928e-03 -1.49754e-03  2.18368e-03
       O -3.24618e-04  2.36969e-05  5.74001e-05
       H -4.43786e-03  2.48401e-03  3.13346e-04
       H -1.17269e-03  2.51423e-04  3.24375e-03
       O -1.12778e-03 -2.85982e-04  5.28938e-05
       H  7.01466e-04  2.49901e-03 -2.19069e-03
       H  1.20071e-03  1.58837e-04 -4.85427e-03
       O  1.53799e-03  2.33697e-03 -5.24010e-04
       H  1.41290e-04 -2.98828e-03  2.97259e-03
       H -8.56938e-04 -4.95347e-03 -8.26975e-04
       O  1.11400e-04 -1.05084e-03 -1.27971e-04
       H -1.25680e-03  1.51495e-03 -3.90460e-03
       H  2.39103e-03  5.46502e-03  1.98205e-03
       O -1.00632e-03 -1.50574e-03  1.48917e-04
       H  2.31188e-03  1.44767e-03 -4.38082e-03
       H -7.07632e-05  2.12901e-03  1.10709e-03
       O  1.09351e-03  1.27660e-04 -6.22728e-04
       H  8.80573e-03 -1.39757e-03 -1.08679e-03
       H  7.81367e-04 -1.07020e-03  4.38617e-04
       O -1.33241e-03 -1.39739e-04  6.25064e-04
       H  3.99370e-03  4.87800e-03 -2.74038e-03
       H  3.29049e-03 -5.65659e-03  5.01898e-04
       O -1.47837e-03  1.45350e-04  9.68436e-04
       H -5.31384e-03  3.40696e-03 -1.20191e-04