192
# CELL(abcABC):   16.99620    29.43815    27.67315    90.00000    90.00000    90.00000  Step:           0  Bead:      27 positions{atomic_unit}  cell{atomic_unit}
       O -8.21943e+00 -9.93714e+00 -1.31733e+01
       H  7.30975e+00 -1.09659e+01 -1.36333e+01
       H -6.70309e+00 -1.09427e+01 -1.35003e+01
       O -3.97045e+00 -2.57760e+00 -1.31733e+01
       H -5.43740e+00 -3.60640e+00 -1.36335e+01
       H -2.45410e+00 -3.58307e+00 -1.35002e+01
       O -3.95479e+00 -1.25494e+01 -7.82537e-01
       H -3.95303e+00 -1.43463e+01 -2.27998e-01
       H -4.14654e+00 -1.25640e+01 -2.59980e+00
       O -8.20381e+00 -5.18980e+00 -7.82573e-01
       H -8.20206e+00 -6.98662e+00 -2.28079e-01
       H -8.39554e+00 -5.20430e+00 -2.59985e+00
       O -4.52774e+00 -1.21415e+01 -6.25501e+00
       H -6.04401e+00 -1.11359e+01 -6.58198e+00
       H -3.06070e+00 -1.11128e+01 -6.71509e+00
       O  8.21948e+00 -4.78197e+00 -6.25503e+00
       H  6.70316e+00 -3.77646e+00 -6.58191e+00
       H -7.30970e+00 -3.75321e+00 -6.71514e+00
       O  8.20373e+00 -9.52922e+00 -7.70081e+00
       H  8.39566e+00 -9.51468e+00 -9.51806e+00
       H  8.20220e+00 -7.73240e+00 -7.14624e+00
       O -4.54345e+00 -2.16975e+00 -7.70084e+00
       H -4.35162e+00 -2.15526e+00 -9.51812e+00
       H -4.54503e+00 -3.72917e-01 -7.14634e+00
       O -8.21943e+00 -9.93697e+00  6.63195e-01
       H  7.30977e+00 -1.09657e+01  2.03202e-01
       H -6.70308e+00 -1.09425e+01  3.36227e-01
       O -3.97044e+00 -2.57760e+00  6.63173e-01
       H -5.43747e+00 -3.60635e+00  2.03069e-01
       H -2.45410e+00 -3.58312e+00  3.36346e-01
       O -3.95472e+00 -1.25494e+01  1.30540e+01
       H -3.95309e+00 -1.43462e+01  1.36086e+01
       H -4.14653e+00 -1.25640e+01  1.12368e+01
       O -8.20380e+00 -5.18990e+00  1.30541e+01
       H -8.20202e+00 -6.98672e+00  1.36085e+01
       H -8.39553e+00 -5.20434e+00  1.12368e+01
       O -4.52771e+00 -1.21415e+01  7.58159e+00
       H -6.04402e+00 -1.11360e+01  7.25460e+00
       H -3.06070e+00 -1.11128e+01  7.12152e+00
       O  8.21944e+00 -4.78191e+00  7.58149e+00
       H  6.70312e+00 -3.77633e+00  7.25453e+00
       H -7.30974e+00 -3.75322e+00  7.12139e+00
       O  8.20378e+00 -9.52926e+00  6.13582e+00
       H  8.39564e+00 -9.51474e+00  4.31856e+00
       H  8.20221e+00 -7.73246e+00  6.69037e+00
       O -4.54344e+00 -2.16971e+00  6.13568e+00
       H -4.35161e+00 -2.15522e+00  4.31840e+00
       H -4.54506e+00 -3.72896e-01  6.69017e+00
       O -8.21947e+00  4.78210e+00 -1.31734e+01
       H  7.30974e+00  3.75335e+00 -1.36334e+01
       H -6.70314e+00  3.77651e+00 -1.35002e+01
       O -3.97046e+00  1.21415e+01 -1.31733e+01
       H -5.43745e+00  1.11127e+01 -1.36334e+01
       H -2.45410e+00  1.11360e+01 -1.35002e+01
       O -3.95479e+00  2.16971e+00 -7.82462e-01
       H -3.95303e+00  3.72884e-01 -2.27933e-01
       H -4.14646e+00  2.15509e+00 -2.59975e+00
       O -8.20376e+00  9.52923e+00 -7.82499e-01
       H -8.20200e+00  7.73238e+00 -2.27998e-01
       H -8.39546e+00  9.51472e+00 -2.59977e+00
       O -4.52774e+00  2.57749e+00 -6.25512e+00
       H -6.04400e+00  3.58312e+00 -6.58197e+00
       H -3.06066e+00  3.60618e+00 -6.71512e+00
       O  8.21949e+00  9.93715e+00 -6.25509e+00
       H  6.70318e+00  1.09426e+01 -6.58202e+00
       H -7.30970e+00  1.09659e+01 -6.71526e+00
       O  8.20366e+00  5.18988e+00 -7.70077e+00
       H  8.39552e+00  5.20437e+00 -9.51803e+00
       H  8.20217e+00  6.98669e+00 -7.14625e+00
       O -4.54337e+00  1.25494e+01 -7.70088e+00
       H -4.35159e+00  1.25639e+01 -9.51817e+00
       H -4.54500e+00  1.43462e+01 -7.14634e+00
       O -8.21952e+00  4.78190e+00  6.63226e-01
       H  7.30971e+00  3.75313e+00  2.03107e-01
       H -6.70317e+00  3.77635e+00  3.36440e-01
       O -3.97040e+00  1.21415e+01  6.63326e-01
       H -5.43738e+00  1.11127e+01  2.03185e-01
       H -2.45407e+00  1.11360e+01  3.36426e-01
       O -3.95476e+00  2.16964e+00  1.30541e+01
       H -3.95303e+00  3.72832e-01  1.36087e+01
       H -4.14651e+00  2.15510e+00  1.12369e+01
       O -8.20373e+00  9.52937e+00  1.30540e+01
       H -8.20206e+00  7.73252e+00  1.36085e+01
       H -8.39548e+00  9.51483e+00  1.12368e+01
       O -4.52770e+00  2.57756e+00  7.58140e+00
       H -6.04399e+00  3.58315e+00  7.25450e+00
       H -3.06066e+00  3.60630e+00  7.12138e+00
       O  8.21951e+00  9.93714e+00  7.58157e+00
       H  6.70319e+00  1.09427e+01  7.25463e+00
       H -7.30968e+00  1.09658e+01  7.12140e+00
       O  8.20369e+00  5.18993e+00  6.13578e+00
       H  8.39547e+00  5.20441e+00  4.31850e+00
       H  8.20212e+00  6.98674e+00  6.69030e+00
       O -4.54348e+00  1.25494e+01  6.13570e+00
       H -4.35158e+00  1.25639e+01  4.31845e+00
       H -4.54503e+00  1.43462e+01  6.69025e+00
       O  2.78573e-01 -9.93717e+00 -1.31734e+01
       H -1.18842e+00 -1.09659e+01 -1.36336e+01
       H  1.79493e+00 -1.09427e+01 -1.35002e+01
       O  4.52772e+00 -2.57751e+00 -1.31733e+01
       H  3.06068e+00 -3.60627e+00 -1.36334e+01
       H  6.04403e+00 -3.58305e+00 -1.35003e+01
       O  4.54334e+00 -1.25494e+01 -7.82465e-01
       H  4.54513e+00 -1.43463e+01 -2.27989e-01
       H  4.35168e+00 -1.25640e+01 -2.59974e+00
       O  2.94294e-01 -5.18980e+00 -7.82487e-01
       H  2.96032e-01 -6.98663e+00 -2.28053e-01
       H  1.02602e-01 -5.20427e+00 -2.59977e+00
       O  3.97042e+00 -1.21415e+01 -6.25517e+00
       H  2.45414e+00 -1.11359e+01 -6.58198e+00
       H  5.43747e+00 -1.11128e+01 -6.71526e+00
       O -2.78672e-01 -4.78194e+00 -6.25508e+00
       H -1.79498e+00 -3.77636e+00 -6.58199e+00
       H  1.18837e+00 -3.75320e+00 -6.71514e+00
       O -2.94511e-01 -9.52920e+00 -7.70081e+00
       H -1.02600e-01 -9.51466e+00 -9.51806e+00
       H -2.96005e-01 -7.73240e+00 -7.14625e+00
       O  3.95462e+00 -2.16972e+00 -7.70080e+00
       H  4.14654e+00 -2.15521e+00 -9.51804e+00
       H  3.95318e+00 -3.72879e-01 -7.14628e+00
       O  2.78541e-01 -9.93701e+00  6.63104e-01
       H -1.18842e+00 -1.09658e+01  2.03011e-01
       H  1.79493e+00 -1.09425e+01  3.36333e-01
       O  4.52773e+00 -2.57757e+00  6.63187e-01
       H  3.06068e+00 -3.60633e+00  2.03125e-01
       H  6.04402e+00 -3.58308e+00  3.36357e-01
       O  4.54332e+00 -1.25494e+01  1.30541e+01
       H  4.54518e+00 -1.43462e+01  1.36086e+01
       H  4.35169e+00 -1.25640e+01  1.12368e+01
       O  2.94281e-01 -5.18991e+00  1.30541e+01
       H  2.95995e-01 -6.98675e+00  1.36085e+01
       H  1.02570e-01 -5.20435e+00  1.12368e+01
       O  3.97044e+00 -1.21415e+01  7.58145e+00
       H  2.45413e+00 -1.11360e+01  7.25466e+00
       H  5.43745e+00 -1.11128e+01  7.12135e+00
       O -2.78601e-01 -4.78191e+00  7.58148e+00
       H -1.79495e+00 -3.77634e+00  7.25458e+00
       H  1.18839e+00 -3.75323e+00  7.12138e+00
       O -2.94501e-01 -9.52922e+00  6.13582e+00
       H -1.02637e-01 -9.51466e+00  4.31854e+00
       H -2.96013e-01 -7.73241e+00  6.69035e+00
       O  3.95462e+00 -2.16967e+00  6.13570e+00
       H  4.14656e+00 -2.15516e+00  4.31844e+00
       H  3.95315e+00 -3.72836e-01  6.69024e+00
       O  2.78636e-01  4.78206e+00 -1.31735e+01
       H -1.18832e+00  3.75329e+00 -1.36335e+01
       H  1.79499e+00  3.77651e+00 -1.35003e+01
       O  4.52773e+00  1.21415e+01 -1.31733e+01
       H  3.06066e+00  1.11127e+01 -1.36334e+01
       H  6.04403e+00  1.11360e+01 -1.35003e+01
       O  4.54332e+00  2.16970e+00 -7.82499e-01
       H  4.54510e+00  3.72872e-01 -2.27973e-01
       H  4.35161e+00  2.15513e+00 -2.59979e+00
       O  2.94188e-01  9.52923e+00 -7.82517e-01
       H  2.95976e-01  7.73239e+00 -2.28033e-01
       H  1.02486e-01  9.51470e+00 -2.59980e+00
       O  3.97041e+00  2.57752e+00 -6.25508e+00
       H  2.45414e+00  3.58307e+00 -6.58188e+00
       H  5.43747e+00  3.60626e+00 -6.71516e+00
       O -2.78677e-01  9.93714e+00 -6.25506e+00
       H -1.79497e+00  1.09427e+01 -6.58203e+00
       H  1.18838e+00  1.09659e+01 -6.71517e+00
       O -2.94451e-01  5.18990e+00 -7.70074e+00
       H -1.02475e-01  5.20442e+00 -9.51799e+00
       H -2.95971e-01  6.98671e+00 -7.14623e+00
       O  3.95453e+00  1.25494e+01 -7.70088e+00
       H  4.14650e+00  1.25638e+01 -9.51813e+00
       H  3.95314e+00  1.43462e+01 -7.14638e+00
       O  2.78666e-01  4.78190e+00  6.63181e-01
       H -1.18838e+00  3.75314e+00  2.03219e-01
       H  1.79499e+00  3.77637e+00  3.36305e-01
       O  4.52768e+00  1.21415e+01  6.63233e-01
       H  3.06065e+00  1.11127e+01  2.03130e-01
       H  6.04402e+00  1.11359e+01  3.36318e-01
       O  4.54337e+00  2.16963e+00  1.30541e+01
       H  4.54515e+00  3.72778e-01  1.36085e+01
       H  4.35165e+00  2.15511e+00  1.12368e+01
       O  2.94139e-01  9.52935e+00  1.30540e+01
       H  2.96028e-01  7.73252e+00  1.36085e+01
       H  1.02508e-01  9.51480e+00  1.12368e+01
       O  3.97044e+00  2.57752e+00  7.58146e+00
       H  2.45409e+00  3.58312e+00  7.25468e+00
       H  5.43745e+00  3.60627e+00  7.12136e+00
       O -2.78642e-01  9.93713e+00  7.58156e+00
       H -1.79498e+00  1.09426e+01  7.25459e+00
       H  1.18834e+00  1.09658e+01  7.12145e+00
       O -2.94462e-01  5.18993e+00  6.13575e+00
       H -1.02485e-01  5.20444e+00  4.31854e+00
       H -2.95928e-01  6.98677e+00  6.69031e+00
       O  3.95461e+00  1.25493e+01  6.13580e+00
       H  4.14651e+00  1.25638e+01  4.31854e+00
       H  3.95313e+00  1.43462e+01  6.69028e+00
192
# CELL(abcABC):   16.99620    29.43815    27.67315    90.00000    90.00000    90.00000  Step:          10  Bead:      27 positions{atomic_unit}  cell{atomic_unit}
       O -8.21410e+00 -9.94459e+00 -1.31748e+01
       H  7.32498e+00 -1.09492e+01 -1.35017e+01
       H -6.59127e+00 -1.09052e+01 -1.35691e+01
       O -3.94142e+00 -2.57948e+00 -1.31156e+01
       H -5.45225e+00 -3.52996e+00 -1.35887e+01
       H -2.61804e+00 -3.64784e+00 -1.34564e+01
       O -3.95445e+00 -1.25244e+01 -8.04210e-01
       H -3.94162e+00 -1.42286e+01 -1.91204e-01
       H -4.24021e+00 -1.25217e+01 -2.68192e+00
       O -8.22596e+00 -5.21023e+00 -7.68009e-01
       H -8.24702e+00 -6.95826e+00 -3.15291e-01
       H -8.35415e+00 -5.18875e+00 -2.56616e+00
       O -4.49891e+00 -1.21450e+01 -6.26797e+00
       H -6.07970e+00 -1.11844e+01 -6.65585e+00
       H -3.04005e+00 -1.10736e+01 -6.87250e+00
       O  8.23950e+00 -4.76491e+00 -6.29686e+00
       H  6.63467e+00 -3.86875e+00 -6.50125e+00
       H -7.19456e+00 -3.73682e+00 -6.75661e+00
       O  8.17502e+00 -9.53387e+00 -7.67113e+00
       H  8.51668e+00 -9.64028e+00 -9.42270e+00
       H  8.11780e+00 -7.76424e+00 -7.14253e+00
       O -4.55842e+00 -2.17280e+00 -7.69391e+00
       H -4.33527e+00 -2.18262e+00 -9.43939e+00
       H -4.54059e+00 -5.26898e-01 -7.08067e+00
       O -8.21291e+00 -9.92698e+00  6.95633e-01
       H  7.37948e+00 -1.10444e+01  2.43367e-01
       H -6.64524e+00 -1.08312e+01  4.18004e-01
       O -3.93899e+00 -2.54828e+00  6.97840e-01
       H -5.38488e+00 -3.57338e+00 -6.44252e-03
       H -2.40367e+00 -3.61174e+00  2.94724e-01
       O -3.93758e+00 -1.25468e+01  1.30487e+01
       H -3.93227e+00 -1.43180e+01  1.36741e+01
       H -4.23980e+00 -1.26108e+01  1.13352e+01
       O -8.20955e+00 -5.18742e+00  1.30509e+01
       H -8.18486e+00 -6.91723e+00  1.36634e+01
       H -8.27276e+00 -5.10376e+00  1.12868e+01
       O -4.55194e+00 -1.21655e+01  7.58761e+00
       H -5.99514e+00 -1.11648e+01  7.28650e+00
       H -3.16463e+00 -1.10905e+01  6.81652e+00
       O  8.19551e+00 -4.78963e+00  7.54980e+00
       H  6.60228e+00 -3.67059e+00  7.32349e+00
       H -7.37626e+00 -3.71861e+00  7.09783e+00
       O  8.21855e+00 -9.52300e+00  6.10611e+00
       H  8.50683e+00 -9.48412e+00  4.38075e+00
       H  8.18898e+00 -7.55426e+00  6.80499e+00
       O -4.57584e+00 -2.23823e+00  6.15279e+00
       H -4.42216e+00 -2.10437e+00  4.39467e+00
       H -4.52815e+00 -4.85533e-01  6.73582e+00
       O -8.19752e+00  4.77043e+00 -1.31630e+01
       H  6.99845e+00  3.81133e+00 -1.35894e+01
       H -6.67107e+00  3.87088e+00 -1.36313e+01
       O -3.99140e+00  1.21310e+01 -1.32091e+01
       H -5.43084e+00  1.09932e+01 -1.36875e+01
       H -2.67328e+00  1.11625e+01 -1.33480e+01
       O -3.90872e+00  2.16440e+00 -8.04656e-01
       H -4.07711e+00  4.35932e-01 -1.93330e-01
       H -4.08942e+00  1.92682e+00 -2.57955e+00
       O -8.22356e+00  9.52601e+00 -7.73444e-01
       H -8.02046e+00  7.93213e+00 -1.50978e-01
       H -8.23581e+00  9.50457e+00 -2.65264e+00
       O -4.51533e+00  2.57568e+00 -6.27631e+00
       H -6.06688e+00  3.62721e+00 -6.54874e+00
       H -2.91008e+00  3.43910e+00 -6.77332e+00
       O  8.19761e+00  9.90284e+00 -6.25226e+00
       H  6.55123e+00  1.10021e+01 -6.53112e+00
       H -7.32626e+00  1.08990e+01 -6.66454e+00
       O  8.22849e+00  5.20958e+00 -7.71852e+00
       H  8.59381e+00  5.22911e+00 -9.49113e+00
       H  8.12852e+00  7.00203e+00 -7.15144e+00
       O -4.55782e+00  1.25325e+01 -7.66392e+00
       H -4.36610e+00  1.27385e+01 -9.59191e+00
       H -4.50675e+00  1.42736e+01 -7.13285e+00
       O -8.20492e+00  4.75552e+00  6.21003e-01
       H  7.38745e+00  3.71559e+00  3.00958e-01
       H -6.74409e+00  3.74940e+00  4.23324e-01
       O -3.97810e+00  1.21084e+01  6.29902e-01
       H -5.55515e+00  1.09832e+01  8.91545e-02
       H -2.50673e+00  1.11348e+01  4.00482e-01
       O -3.94707e+00  2.12708e+00  1.30307e+01
       H -3.78028e+00  2.75644e-01  1.36016e+01
       H -4.18661e+00  2.05378e+00  1.12182e+01
       O -8.21506e+00  9.51909e+00  1.30801e+01
       H -8.23330e+00  7.77814e+00  1.34159e+01
       H -8.40019e+00  9.52498e+00  1.11620e+01
       O -4.51390e+00  2.58824e+00  7.54655e+00
       H -6.08732e+00  3.58454e+00  7.34214e+00
       H -2.90938e+00  3.58504e+00  7.22704e+00
       O  8.25269e+00  9.94811e+00  7.56860e+00
       H  6.66231e+00  1.10105e+01  7.39007e+00
       H -7.35507e+00  1.09553e+01  6.97749e+00
       O  8.17904e+00  5.21364e+00  6.10920e+00
       H  8.33864e+00  5.19458e+00  4.21017e+00
       H  8.22610e+00  6.93275e+00  6.64313e+00
       O -4.54248e+00  1.25592e+01  6.11508e+00
       H -4.36786e+00  1.24968e+01  4.39691e+00
       H -4.53053e+00  1.44182e+01  6.53079e+00
       O  2.90163e-01 -9.93048e+00 -1.32071e+01
       H -1.18674e+00 -1.08835e+01 -1.34334e+01
       H  1.59503e+00 -1.09851e+01 -1.34799e+01
       O  4.51924e+00 -2.60899e+00 -1.31663e+01
       H  3.07138e+00 -3.52152e+00 -1.34941e+01
       H  5.87294e+00 -3.62902e+00 -1.34608e+01
       O  4.57745e+00 -1.25939e+01 -8.16318e-01
       H  4.57734e+00 -1.42740e+01 -2.59640e-01
       H  4.27697e+00 -1.25002e+01 -2.60080e+00
       O  2.87031e-01 -5.22535e+00 -7.41366e-01
       H  4.11354e-01 -7.20714e+00 -2.64848e-01
       H  1.37594e-01 -5.19479e+00 -2.57892e+00
       O  3.99060e+00 -1.21373e+01 -6.25479e+00
       H  2.28321e+00 -1.12370e+01 -6.52064e+00
       H  5.50479e+00 -1.12504e+01 -6.60354e+00
       O -2.54869e-01 -4.78942e+00 -6.22882e+00
       H -1.95289e+00 -3.81435e+00 -6.67044e+00
       H  1.19925e+00 -3.70333e+00 -6.68369e+00
       O -2.77955e-01 -9.48305e+00 -7.68460e+00
       H -5.92337e-02 -9.51240e+00 -9.38799e+00
       H -4.02873e-01 -7.79235e+00 -7.12284e+00
       O  3.94913e+00 -2.12783e+00 -7.70299e+00
       H  4.16134e+00 -2.28496e+00 -9.50346e+00
       H  4.22069e+00 -3.40323e-01 -7.14538e+00
       O  2.52781e-01 -9.93603e+00  6.44029e-01
       H -1.18813e+00 -1.09400e+01  1.95405e-01
       H  1.72716e+00 -1.08441e+01  4.99310e-01
       O  4.54434e+00 -2.58988e+00  6.61025e-01
       H  3.04313e+00 -3.70917e+00  3.25657e-01
       H  6.01743e+00 -3.45440e+00  4.52149e-01
       O  4.54155e+00 -1.25306e+01  1.30944e+01
       H  4.46971e+00 -1.42687e+01  1.33438e+01
       H  4.25135e+00 -1.25735e+01  1.11104e+01
       O  3.05763e-01 -5.16194e+00  1.30765e+01
       H  3.10985e-01 -7.02158e+00  1.36416e+01
       H  5.25743e-02 -5.11579e+00  1.12070e+01
       O  3.97225e+00 -1.21676e+01  7.55881e+00
       H  2.54109e+00 -1.12916e+01  7.08907e+00
       H  5.27222e+00 -1.12471e+01  7.13237e+00
       O -2.57147e-01 -4.78480e+00  7.55928e+00
       H -1.73060e+00 -3.73205e+00  7.30395e+00
       H  1.17592e+00 -3.80162e+00  7.10294e+00
       O -2.95033e-01 -9.57429e+00  6.13108e+00
       H -1.60108e-01 -9.40801e+00  4.13673e+00
       H -3.23440e-01 -7.66302e+00  6.65910e+00
       O  3.96260e+00 -2.19901e+00  6.12761e+00
       H  4.11414e+00 -2.23670e+00  4.31815e+00
       H  3.98451e+00 -2.97560e-01  6.73458e+00
       O  2.46067e-01  4.77072e+00 -1.30965e+01
       H -1.32911e+00  3.89198e+00 -1.36762e+01
       H  1.70209e+00  3.67299e+00 -1.36424e+01
       O  4.51220e+00  1.21403e+01 -1.31549e+01
       H  3.05420e+00  1.11653e+01 -1.36285e+01
       H  5.96352e+00  1.11130e+01 -1.35530e+01
       O  4.54726e+00  2.16493e+00 -7.69917e-01
       H  4.53021e+00  3.01182e-01 -2.83769e-01
       H  4.46444e+00  2.11225e+00 -2.51173e+00
       O  2.87721e-01  9.54588e+00 -8.13273e-01
       H  2.66514e-01  7.82281e+00 -3.12942e-01
       H -1.43877e-01  9.66048e+00 -2.55236e+00
       O  3.94932e+00  2.56881e+00 -6.26786e+00
       H  2.41933e+00  3.54513e+00 -6.62275e+00
       H  5.43064e+00  3.61716e+00 -6.77340e+00
       O -2.37430e-01  9.94817e+00 -6.25940e+00
       H -1.86462e+00  1.08769e+01 -6.65571e+00
       H  1.07629e+00  1.09010e+01 -6.67519e+00
       O -3.07740e-01  5.18056e+00 -7.73468e+00
       H -1.15959e-01  5.18709e+00 -9.47602e+00
       H -4.78631e-01  6.91393e+00 -7.13902e+00
       O  3.99611e+00  1.25531e+01 -7.73176e+00
       H  4.13581e+00  1.24991e+01 -9.44313e+00
       H  4.10089e+00  1.43448e+01 -7.09038e+00
       O  2.76781e-01  4.77526e+00  6.68508e-01
       H -9.96466e-01  3.79568e+00  2.21527e-01
       H  1.71797e+00  3.85635e+00  3.15412e-01
       O  4.55476e+00  1.21031e+01  6.72438e-01
       H  3.04136e+00  1.10851e+01  1.62977e-01
       H  6.16240e+00  1.10112e+01  3.81254e-01
       O  4.54196e+00  2.19733e+00  1.30385e+01
       H  4.65089e+00  2.84132e-01  1.34925e+01
       H  4.35127e+00  2.11629e+00  1.11583e+01
       O  2.94332e-01  9.51973e+00  1.30599e+01
       H  4.08043e-01  7.82055e+00  1.36646e+01
       H  1.29868e-01  9.54202e+00  1.11118e+01
       O  3.97310e+00  2.54859e+00  7.60226e+00
       H  2.52811e+00  3.56082e+00  7.39608e+00
       H  5.47197e+00  3.60822e+00  7.23182e+00
       O -3.25717e-01  9.93954e+00  7.56233e+00
       H -1.72971e+00  1.10294e+01  7.22346e+00
       H  1.27341e+00  1.09425e+01  7.01561e+00
       O -2.76874e-01  5.18049e+00  6.12322e+00
       H -2.99507e-01  5.16857e+00  4.45967e+00
       H -3.47059e-01  7.02555e+00  6.75202e+00
       O  3.99773e+00  1.25166e+01  6.11341e+00
       H  4.03609e+00  1.25587e+01  4.30994e+00
       H  3.92164e+00  1.43924e+01  6.66507e+00
192
# CELL(abcABC):   16.99620    29.43815    27.67315    90.00000    90.00000    90.00000  Step:          20  Bead:      27 positions{atomic_unit}  cell{atomic_unit}
       O -8.19801e+00 -9.98438e+00 -1.31678e+01
       H  7.26185e+00 -1.09305e+01 -1.33743e+01
       H -6.75786e+00 -1.09329e+01 -1.36313e+01
       O -3.87581e+00 -2.56184e+00 -1.30914e+01
       H -5.13061e+00 -3.59031e+00 -1.36121e+01
       H -2.69158e+00 -3.68072e+00 -1.32655e+01
       O -3.94665e+00 -1.25391e+01 -8.38081e-01
       H -4.07219e+00 -1.43029e+01 -1.47727e-01
       H -4.16729e+00 -1.23021e+01 -2.61278e+00
       O -8.22199e+00 -5.22029e+00 -7.78207e-01
       H -8.19310e+00 -7.09737e+00 -3.83743e-01
       H -8.16724e+00 -5.28030e+00 -2.57783e+00
       O -4.51011e+00 -1.21373e+01 -6.27612e+00
       H -6.04593e+00 -1.11795e+01 -6.63292e+00
       H -3.22243e+00 -1.10597e+01 -6.85369e+00
       O  8.25485e+00 -4.75044e+00 -6.28182e+00
       H  6.57918e+00 -3.84138e+00 -6.45066e+00
       H -7.10244e+00 -3.63557e+00 -6.87678e+00
       O  8.18771e+00 -9.49467e+00 -7.68434e+00
       H  8.63953e+00 -9.70165e+00 -9.46357e+00
       H  8.04108e+00 -7.83557e+00 -7.20571e+00
       O -4.52531e+00 -2.11852e+00 -7.73981e+00
       H -4.38574e+00 -2.16977e+00 -9.49486e+00
       H -4.55190e+00 -6.23070e-01 -6.92727e+00
       O -8.19772e+00 -9.89415e+00  7.01085e-01
       H  7.49488e+00 -1.09970e+01  1.74057e-01
       H -6.60147e+00 -1.08200e+01  3.35926e-01
       O -3.94469e+00 -2.58803e+00  7.33378e-01
       H -5.42734e+00 -3.54429e+00 -1.04959e-01
       H -2.35550e+00 -3.61349e+00  4.67008e-01
       O -3.91841e+00 -1.24979e+01  1.30734e+01
       H -3.90036e+00 -1.41823e+01  1.36813e+01
       H -4.20216e+00 -1.26074e+01  1.13511e+01
       O -8.19274e+00 -5.16357e+00  1.30426e+01
       H -8.02354e+00 -6.86442e+00  1.35050e+01
       H -8.38603e+00 -5.09758e+00  1.12102e+01
       O -4.59861e+00 -1.21314e+01  7.55395e+00
       H -5.79688e+00 -1.11082e+01  7.27646e+00
       H -3.09996e+00 -1.09058e+01  6.88818e+00
       O  8.19817e+00 -4.78114e+00  7.57757e+00
       H  6.68843e+00 -3.50835e+00  7.42904e+00
       H -7.39587e+00 -3.86516e+00  7.07422e+00
       O  8.21234e+00 -9.51371e+00  6.14863e+00
       H  8.53927e+00 -9.30224e+00  4.51129e+00
       H  8.31904e+00 -7.51173e+00  6.83793e+00
       O -4.58168e+00 -2.28072e+00  6.16801e+00
       H -4.52295e+00 -2.13728e+00  4.45141e+00
       H -4.55615e+00 -3.70692e-01  6.70115e+00
       O -8.22029e+00  4.80068e+00 -1.32034e+01
       H  6.93736e+00  3.66833e+00 -1.37209e+01
       H -6.55685e+00  3.85513e+00 -1.36157e+01
       O -3.95652e+00  1.21081e+01 -1.32244e+01
       H -5.33981e+00  1.08660e+01 -1.36426e+01
       H -2.47458e+00  1.10310e+01 -1.34033e+01
       O -3.91666e+00  2.15383e+00 -7.90704e-01
       H -3.98475e+00  4.22252e-01 -3.03834e-01
       H -4.10358e+00  1.80678e+00 -2.65286e+00
       O -8.24323e+00  9.52512e+00 -7.93665e-01
       H -7.97082e+00  7.99669e+00 -1.00524e-01
       H -8.20787e+00  9.65660e+00 -2.69491e+00
       O -4.54141e+00  2.57165e+00 -6.29117e+00
       H -6.02287e+00  3.67235e+00 -6.59286e+00
       H -2.78935e+00  3.39375e+00 -6.91939e+00
       O  8.18977e+00  9.90604e+00 -6.24782e+00
       H  6.68274e+00  1.10176e+01 -6.56539e+00
       H -7.29686e+00  1.10162e+01 -6.61582e+00
       O  8.21643e+00  5.21934e+00 -7.72922e+00
       H  8.61044e+00  5.15590e+00 -9.49885e+00
       H  8.13554e+00  7.02719e+00 -7.25954e+00
       O -4.57263e+00  1.25258e+01 -7.67051e+00
       H -4.46148e+00  1.27575e+01 -9.63108e+00
       H -4.54513e+00  1.42574e+01 -7.07141e+00
       O -8.18961e+00  4.77155e+00  6.08023e-01
       H  7.39147e+00  3.73926e+00  3.95346e-01
       H -6.70601e+00  3.77575e+00  2.08682e-01
       O -3.98783e+00  1.21005e+01  6.44977e-01
       H -5.60002e+00  1.11003e+01  6.92931e-02
       H -2.53718e+00  1.09956e+01  3.26972e-01
       O -3.96213e+00  2.16795e+00  1.29997e+01
       H -3.87145e+00  3.90864e-01  1.37577e+01
       H -4.31522e+00  2.21957e+00  1.12577e+01
       O -8.20400e+00  9.51797e+00  1.30811e+01
       H -8.38899e+00  7.65574e+00  1.33680e+01
       H -8.59684e+00  9.44774e+00  1.11634e+01
       O -4.49003e+00  2.56792e+00  7.52564e+00
       H -6.10389e+00  3.52884e+00  7.58382e+00
       H -2.96400e+00  3.76311e+00  7.20695e+00
       O  8.23105e+00  9.92486e+00  7.58814e+00
       H  6.69765e+00  1.11538e+01  7.42548e+00
       H -7.25844e+00  1.08017e+01  6.99442e+00
       O  8.19122e+00  5.25238e+00  6.08325e+00
       H  8.22390e+00  5.24420e+00  4.13856e+00
       H  8.21070e+00  7.03920e+00  6.62602e+00
       O -4.49907e+00  1.25556e+01  6.14865e+00
       H -4.50145e+00  1.25007e+01  4.34762e+00
       H -4.62007e+00  1.44767e+01  6.77126e+00
       O  3.00454e-01 -9.91359e+00 -1.32442e+01
       H -1.13270e+00 -1.08497e+01 -1.34867e+01
       H  1.73578e+00 -1.10503e+01 -1.33762e+01
       O  4.53763e+00 -2.63152e+00 -1.31855e+01
       H  3.04313e+00 -3.45167e+00 -1.36911e+01
       H  5.88484e+00 -3.44395e+00 -1.34574e+01
       O  4.59297e+00 -1.26234e+01 -7.84147e-01
       H  4.69496e+00 -1.42238e+01 -2.93309e-01
       H  4.24217e+00 -1.24710e+01 -2.57551e+00
       O  2.53510e-01 -5.21880e+00 -7.49770e-01
       H  4.86464e-01 -7.32145e+00 -4.09759e-01
       H  3.37480e-02 -5.09318e+00 -2.51585e+00
       O  4.02535e+00 -1.21476e+01 -6.24181e+00
       H  2.18041e+00 -1.12485e+01 -6.37637e+00
       H  5.45525e+00 -1.12307e+01 -6.68831e+00
       O -3.38659e-01 -4.79620e+00 -6.18520e+00
       H -2.03494e+00 -4.05761e+00 -6.57733e+00
       H  1.29239e+00 -3.73425e+00 -6.69944e+00
       O -2.47367e-01 -9.48786e+00 -7.73032e+00
       H  1.79864e-02 -9.52522e+00 -9.47520e+00
       H -4.32009e-01 -7.85568e+00 -7.15115e+00
       O  3.95089e+00 -2.10949e+00 -7.70300e+00
       H  3.94243e+00 -2.32972e+00 -9.47111e+00
       H  4.25716e+00 -4.64459e-01 -7.14250e+00
       O  2.48797e-01 -9.95021e+00  6.27551e-01
       H -1.18257e+00 -1.09416e+01  1.73154e-01
       H  1.74509e+00 -1.06936e+01  6.41105e-01
       O  4.55536e+00 -2.54914e+00  6.50062e-01
       H  3.04375e+00 -3.71447e+00  4.99920e-01
       H  6.02628e+00 -3.48023e+00  4.49819e-01
       O  4.54800e+00 -1.25174e+01  1.30995e+01
       H  4.56923e+00 -1.43869e+01  1.32902e+01
       H  4.30810e+00 -1.24712e+01  1.11184e+01
       O  2.88948e-01 -5.16386e+00  1.30923e+01
       H  3.86376e-01 -7.10017e+00  1.37038e+01
       H  6.36496e-02 -5.17276e+00  1.11799e+01
       O  3.95332e+00 -1.21573e+01  7.55416e+00
       H  2.40391e+00 -1.13431e+01  7.10930e+00
       H  5.19222e+00 -1.11296e+01  7.14480e+00
       O -2.60886e-01 -4.78194e+00  7.51393e+00
       H -1.83600e+00 -3.85336e+00  7.35238e+00
       H  1.24202e+00 -3.69052e+00  7.19704e+00
       O -3.09217e-01 -9.60364e+00  6.10915e+00
       H -2.78095e-01 -9.47737e+00  4.10428e+00
       H -3.20847e-01 -7.70733e+00  6.75630e+00
       O  3.93698e+00 -2.21660e+00  6.12057e+00
       H  4.01231e+00 -2.36794e+00  4.18479e+00
       H  4.02428e+00 -3.29365e-01  6.80377e+00
       O  2.12718e-01  4.78966e+00 -1.30854e+01
       H -1.31405e+00  4.01141e+00 -1.36791e+01
       H  1.66706e+00  3.79601e+00 -1.36715e+01
       O  4.50646e+00  1.21415e+01 -1.31595e+01
       H  3.08796e+00  1.11893e+01 -1.37120e+01
       H  5.97055e+00  1.11780e+01 -1.33448e+01
       O  4.53272e+00  2.18876e+00 -7.70097e-01
       H  4.55064e+00  4.06553e-01 -3.84098e-01
       H  4.35256e+00  2.07309e+00 -2.45808e+00
       O  2.78009e-01  9.55568e+00 -7.54754e-01
       H  2.52920e-01  7.79565e+00 -2.68889e-01
       H -2.43324e-01  9.68505e+00 -2.64264e+00
       O  3.96900e+00  2.58080e+00 -6.25714e+00
       H  2.42502e+00  3.54487e+00 -6.63049e+00
       H  5.52068e+00  3.77461e+00 -6.65418e+00
       O -2.50619e-01  9.90405e+00 -6.25634e+00
       H -1.95221e+00  1.08682e+01 -6.61115e+00
       H  1.12354e+00  1.07864e+01 -6.65283e+00
       O -2.92511e-01  5.16721e+00 -7.76613e+00
       H  5.30959e-02  5.25141e+00 -9.57465e+00
       H -4.80456e-01  6.88006e+00 -7.23868e+00
       O  4.01546e+00  1.25433e+01 -7.71966e+00
       H  4.21858e+00  1.25624e+01 -9.50463e+00
       H  4.03711e+00  1.42542e+01 -7.07517e+00
       O  2.66282e-01  4.79730e+00  6.44013e-01
       H -1.09195e+00  3.60264e+00  2.25367e-01
       H  1.77561e+00  3.80371e+00  3.08705e-01
       O  4.57272e+00  1.21181e+01  7.29843e-01
       H  3.24255e+00  1.11179e+01  6.70429e-02
       H  6.28899e+00  1.08931e+01  3.19963e-01
       O  4.52911e+00  2.24846e+00  1.30758e+01
       H  4.52102e+00  3.59354e-01  1.36192e+01
       H  4.50797e+00  2.23983e+00  1.10048e+01
       O  2.86186e-01  9.51259e+00  1.30586e+01
       H  5.29146e-01  7.81909e+00  1.36632e+01
       H  6.79839e-02  9.66320e+00  1.11989e+01
       O  3.96041e+00  2.48543e+00  7.58315e+00
       H  2.41702e+00  3.54507e+00  7.41455e+00
       H  5.34395e+00  3.61805e+00  7.20547e+00
       O -3.11492e-01  9.94899e+00  7.56299e+00
       H -1.79296e+00  1.11137e+01  7.15503e+00
       H  1.17451e+00  1.09229e+01  6.99226e+00
       O -2.56452e-01  5.19293e+00  6.11302e+00
       H -2.18860e-01  5.11152e+00  4.52467e+00
       H  1.13253e-02  7.17240e+00  6.54910e+00
       O  4.01583e+00  1.25428e+01  6.05866e+00
       H  3.89090e+00  1.26758e+01  4.19361e+00
       H  3.90367e+00  1.43509e+01  6.62501e+00
192
# CELL(abcABC):   16.99620    29.43815    27.67315    90.00000    90.00000    90.00000  Step:          30  Bead:      27 positions{atomic_unit}  cell{atomic_unit}
       O -8.20596e+00 -9.92738e+00 -1.31990e+01
       H  7.29721e+00 -1.08810e+01 -1.32295e+01
       H -6.95092e+00 -1.09088e+01 -1.36089e+01
       O -3.83223e+00 -2.53948e+00 -1.30852e+01
       H -5.26842e+00 -3.70825e+00 -1.35885e+01
       H -2.64041e+00 -3.65706e+00 -1.31945e+01
       O -3.94135e+00 -1.25722e+01 -8.83601e-01
       H -3.97302e+00 -1.43030e+01 -3.05831e-01
       H -4.08075e+00 -1.23192e+01 -2.60212e+00
       O -8.22097e+00 -5.24695e+00 -7.60732e-01
       H -8.11815e+00 -6.87370e+00 -1.76934e-01
       H -8.25666e+00 -5.18082e+00 -2.58573e+00
       O -4.48669e+00 -1.21380e+01 -6.30355e+00
       H -5.94255e+00 -1.10447e+01 -6.62628e+00
       H -3.17158e+00 -1.12060e+01 -6.88958e+00
       O  8.20427e+00 -4.73947e+00 -6.29090e+00
       H  6.54151e+00 -3.89881e+00 -6.56330e+00
       H -7.12916e+00 -3.57780e+00 -6.81709e+00
       O  8.20523e+00 -9.49419e+00 -7.67756e+00
       H  8.53061e+00 -9.62341e+00 -9.49218e+00
       H  8.07419e+00 -7.85143e+00 -7.25171e+00
       O -4.51569e+00 -2.12002e+00 -7.73416e+00
       H -4.31845e+00 -2.20930e+00 -9.52710e+00
       H -4.68916e+00 -6.61868e-01 -6.68553e+00
       O -8.20174e+00 -9.88232e+00  6.96005e-01
       H  7.36291e+00 -1.08921e+01  1.44360e-01
       H -6.54653e+00 -1.09533e+01  1.47693e-01
       O -4.00776e+00 -2.59070e+00  7.26422e-01
       H -5.42499e+00 -3.66591e+00 -1.42416e-01
       H -2.45174e+00 -3.68337e+00  4.71245e-01
       O -3.92702e+00 -1.24836e+01  1.30555e+01
       H -4.00509e+00 -1.42312e+01  1.36712e+01
       H -4.25861e+00 -1.24823e+01  1.12463e+01
       O -8.20338e+00 -5.17696e+00  1.30466e+01
       H -8.18012e+00 -6.81924e+00  1.34056e+01