192
# CELL(abcABC):   16.99620    29.43815    27.67315    90.00000    90.00000    90.00000  Step:           0  Bead:       6 positions{atomic_unit}  cell{atomic_unit}
       O -8.21943e+00 -9.93714e+00 -1.31733e+01
       H  7.30975e+00 -1.09659e+01 -1.36333e+01
       H -6.70309e+00 -1.09427e+01 -1.35003e+01
       O -3.97045e+00 -2.57760e+00 -1.31733e+01
       H -5.43740e+00 -3.60640e+00 -1.36335e+01
       H -2.45410e+00 -3.58307e+00 -1.35002e+01
       O -3.95479e+00 -1.25494e+01 -7.82537e-01
       H -3.95303e+00 -1.43463e+01 -2.27998e-01
       H -4.14654e+00 -1.25640e+01 -2.59980e+00
       O -8.20381e+00 -5.18980e+00 -7.82573e-01
       H -8.20206e+00 -6.98662e+00 -2.28079e-01
       H -8.39554e+00 -5.20430e+00 -2.59985e+00
       O -4.52774e+00 -1.21415e+01 -6.25501e+00
       H -6.04401e+00 -1.11359e+01 -6.58198e+00
       H -3.06070e+00 -1.11128e+01 -6.71509e+00
       O  8.21948e+00 -4.78197e+00 -6.25503e+00
       H  6.70316e+00 -3.77646e+00 -6.58191e+00
       H -7.30970e+00 -3.75321e+00 -6.71514e+00
       O  8.20373e+00 -9.52922e+00 -7.70081e+00
       H  8.39566e+00 -9.51468e+00 -9.51806e+00
       H  8.20220e+00 -7.73240e+00 -7.14624e+00
       O -4.54345e+00 -2.16975e+00 -7.70084e+00
       H -4.35162e+00 -2.15526e+00 -9.51812e+00
       H -4.54503e+00 -3.72917e-01 -7.14634e+00
       O -8.21943e+00 -9.93697e+00  6.63195e-01
       H  7.30977e+00 -1.09657e+01  2.03202e-01
       H -6.70308e+00 -1.09425e+01  3.36227e-01
       O -3.97044e+00 -2.57760e+00  6.63173e-01
       H -5.43747e+00 -3.60635e+00  2.03069e-01
       H -2.45410e+00 -3.58312e+00  3.36346e-01
       O -3.95472e+00 -1.25494e+01  1.30540e+01
       H -3.95309e+00 -1.43462e+01  1.36086e+01
       H -4.14653e+00 -1.25640e+01  1.12368e+01
       O -8.20380e+00 -5.18990e+00  1.30541e+01
       H -8.20202e+00 -6.98672e+00  1.36085e+01
       H -8.39553e+00 -5.20434e+00  1.12368e+01
       O -4.52771e+00 -1.21415e+01  7.58159e+00
       H -6.04402e+00 -1.11360e+01  7.25460e+00
       H -3.06070e+00 -1.11128e+01  7.12152e+00
       O  8.21944e+00 -4.78191e+00  7.58149e+00
       H  6.70312e+00 -3.77633e+00  7.25453e+00
       H -7.30974e+00 -3.75322e+00  7.12139e+00
       O  8.20378e+00 -9.52926e+00  6.13582e+00
       H  8.39564e+00 -9.51474e+00  4.31856e+00
       H  8.20221e+00 -7.73246e+00  6.69037e+00
       O -4.54344e+00 -2.16971e+00  6.13568e+00
       H -4.35161e+00 -2.15522e+00  4.31840e+00
       H -4.54506e+00 -3.72896e-01  6.69017e+00
       O -8.21947e+00  4.78210e+00 -1.31734e+01
       H  7.30974e+00  3.75335e+00 -1.36334e+01
       H -6.70314e+00  3.77651e+00 -1.35002e+01
       O -3.97046e+00  1.21415e+01 -1.31733e+01
       H -5.43745e+00  1.11127e+01 -1.36334e+01
       H -2.45410e+00  1.11360e+01 -1.35002e+01
       O -3.95479e+00  2.16971e+00 -7.82462e-01
       H -3.95303e+00  3.72884e-01 -2.27933e-01
       H -4.14646e+00  2.15509e+00 -2.59975e+00
       O -8.20376e+00  9.52923e+00 -7.82499e-01
       H -8.20200e+00  7.73238e+00 -2.27998e-01
       H -8.39546e+00  9.51472e+00 -2.59977e+00
       O -4.52774e+00  2.57749e+00 -6.25512e+00
       H -6.04400e+00  3.58312e+00 -6.58197e+00
       H -3.06066e+00  3.60618e+00 -6.71512e+00
       O  8.21949e+00  9.93715e+00 -6.25509e+00
       H  6.70318e+00  1.09426e+01 -6.58202e+00
       H -7.30970e+00  1.09659e+01 -6.71526e+00
       O  8.20366e+00  5.18988e+00 -7.70077e+00
       H  8.39552e+00  5.20437e+00 -9.51803e+00
       H  8.20217e+00  6.98669e+00 -7.14625e+00
       O -4.54337e+00  1.25494e+01 -7.70088e+00
       H -4.35159e+00  1.25639e+01 -9.51817e+00
       H -4.54500e+00  1.43462e+01 -7.14634e+00
       O -8.21952e+00  4.78190e+00  6.63226e-01
       H  7.30971e+00  3.75313e+00  2.03107e-01
       H -6.70317e+00  3.77635e+00  3.36440e-01
       O -3.97040e+00  1.21415e+01  6.63326e-01
       H -5.43738e+00  1.11127e+01  2.03185e-01
       H -2.45407e+00  1.11360e+01  3.36426e-01
       O -3.95476e+00  2.16964e+00  1.30541e+01
       H -3.95303e+00  3.72832e-01  1.36087e+01
       H -4.14651e+00  2.15510e+00  1.12369e+01
       O -8.20373e+00  9.52937e+00  1.30540e+01
       H -8.20206e+00  7.73252e+00  1.36085e+01
       H -8.39548e+00  9.51483e+00  1.12368e+01
       O -4.52770e+00  2.57756e+00  7.58140e+00
       H -6.04399e+00  3.58315e+00  7.25450e+00
       H -3.06066e+00  3.60630e+00  7.12138e+00
       O  8.21951e+00  9.93714e+00  7.58157e+00
       H  6.70319e+00  1.09427e+01  7.25463e+00
       H -7.30968e+00  1.09658e+01  7.12140e+00
       O  8.20369e+00  5.18993e+00  6.13578e+00
       H  8.39547e+00  5.20441e+00  4.31850e+00
       H  8.20212e+00  6.98674e+00  6.69030e+00
       O -4.54348e+00  1.25494e+01  6.13570e+00
       H -4.35158e+00  1.25639e+01  4.31845e+00
       H -4.54503e+00  1.43462e+01  6.69025e+00
       O  2.78573e-01 -9.93717e+00 -1.31734e+01
       H -1.18842e+00 -1.09659e+01 -1.36336e+01
       H  1.79493e+00 -1.09427e+01 -1.35002e+01
       O  4.52772e+00 -2.57751e+00 -1.31733e+01
       H  3.06068e+00 -3.60627e+00 -1.36334e+01
       H  6.04403e+00 -3.58305e+00 -1.35003e+01
       O  4.54334e+00 -1.25494e+01 -7.82465e-01
       H  4.54513e+00 -1.43463e+01 -2.27989e-01
       H  4.35168e+00 -1.25640e+01 -2.59974e+00
       O  2.94294e-01 -5.18980e+00 -7.82487e-01
       H  2.96032e-01 -6.98663e+00 -2.28053e-01
       H  1.02602e-01 -5.20427e+00 -2.59977e+00
       O  3.97042e+00 -1.21415e+01 -6.25517e+00
       H  2.45414e+00 -1.11359e+01 -6.58198e+00
       H  5.43747e+00 -1.11128e+01 -6.71526e+00
       O -2.78672e-01 -4.78194e+00 -6.25508e+00
       H -1.79498e+00 -3.77636e+00 -6.58199e+00
       H  1.18837e+00 -3.75320e+00 -6.71514e+00
       O -2.94511e-01 -9.52920e+00 -7.70081e+00
       H -1.02600e-01 -9.51466e+00 -9.51806e+00
       H -2.96005e-01 -7.73240e+00 -7.14625e+00
       O  3.95462e+00 -2.16972e+00 -7.70080e+00
       H  4.14654e+00 -2.15521e+00 -9.51804e+00
       H  3.95318e+00 -3.72879e-01 -7.14628e+00
       O  2.78541e-01 -9.93701e+00  6.63104e-01
       H -1.18842e+00 -1.09658e+01  2.03011e-01
       H  1.79493e+00 -1.09425e+01  3.36333e-01
       O  4.52773e+00 -2.57757e+00  6.63187e-01
       H  3.06068e+00 -3.60633e+00  2.03125e-01
       H  6.04402e+00 -3.58308e+00  3.36357e-01
       O  4.54332e+00 -1.25494e+01  1.30541e+01
       H  4.54518e+00 -1.43462e+01  1.36086e+01
       H  4.35169e+00 -1.25640e+01  1.12368e+01
       O  2.94281e-01 -5.18991e+00  1.30541e+01
       H  2.95995e-01 -6.98675e+00  1.36085e+01
       H  1.02570e-01 -5.20435e+00  1.12368e+01
       O  3.97044e+00 -1.21415e+01  7.58145e+00
       H  2.45413e+00 -1.11360e+01  7.25466e+00
       H  5.43745e+00 -1.11128e+01  7.12135e+00
       O -2.78601e-01 -4.78191e+00  7.58148e+00
       H -1.79495e+00 -3.77634e+00  7.25458e+00
       H  1.18839e+00 -3.75323e+00  7.12138e+00
       O -2.94501e-01 -9.52922e+00  6.13582e+00
       H -1.02637e-01 -9.51466e+00  4.31854e+00
       H -2.96013e-01 -7.73241e+00  6.69035e+00
       O  3.95462e+00 -2.16967e+00  6.13570e+00
       H  4.14656e+00 -2.15516e+00  4.31844e+00
       H  3.95315e+00 -3.72836e-01  6.69024e+00
       O  2.78636e-01  4.78206e+00 -1.31735e+01
       H -1.18832e+00  3.75329e+00 -1.36335e+01
       H  1.79499e+00  3.77651e+00 -1.35003e+01
       O  4.52773e+00  1.21415e+01 -1.31733e+01
       H  3.06066e+00  1.11127e+01 -1.36334e+01
       H  6.04403e+00  1.11360e+01 -1.35003e+01
       O  4.54332e+00  2.16970e+00 -7.82499e-01
       H  4.54510e+00  3.72872e-01 -2.27973e-01
       H  4.35161e+00  2.15513e+00 -2.59979e+00
       O  2.94188e-01  9.52923e+00 -7.82517e-01
       H  2.95976e-01  7.73239e+00 -2.28033e-01
       H  1.02486e-01  9.51470e+00 -2.59980e+00
       O  3.97041e+00  2.57752e+00 -6.25508e+00
       H  2.45414e+00  3.58307e+00 -6.58188e+00
       H  5.43747e+00  3.60626e+00 -6.71516e+00
       O -2.78677e-01  9.93714e+00 -6.25506e+00
       H -1.79497e+00  1.09427e+01 -6.58203e+00
       H  1.18838e+00  1.09659e+01 -6.71517e+00
       O -2.94451e-01  5.18990e+00 -7.70074e+00
       H -1.02475e-01  5.20442e+00 -9.51799e+00
       H -2.95971e-01  6.98671e+00 -7.14623e+00
       O  3.95453e+00  1.25494e+01 -7.70088e+00
       H  4.14650e+00  1.25638e+01 -9.51813e+00
       H  3.95314e+00  1.43462e+01 -7.14638e+00
       O  2.78666e-01  4.78190e+00  6.63181e-01
       H -1.18838e+00  3.75314e+00  2.03219e-01
       H  1.79499e+00  3.77637e+00  3.36305e-01
       O  4.52768e+00  1.21415e+01  6.63233e-01
       H  3.06065e+00  1.11127e+01  2.03130e-01
       H  6.04402e+00  1.11359e+01  3.36318e-01
       O  4.54337e+00  2.16963e+00  1.30541e+01
       H  4.54515e+00  3.72778e-01  1.36085e+01
       H  4.35165e+00  2.15511e+00  1.12368e+01
       O  2.94139e-01  9.52935e+00  1.30540e+01
       H  2.96028e-01  7.73252e+00  1.36085e+01
       H  1.02508e-01  9.51480e+00  1.12368e+01
       O  3.97044e+00  2.57752e+00  7.58146e+00
       H  2.45409e+00  3.58312e+00  7.25468e+00
       H  5.43745e+00  3.60627e+00  7.12136e+00
       O -2.78642e-01  9.93713e+00  7.58156e+00
       H -1.79498e+00  1.09426e+01  7.25459e+00
       H  1.18834e+00  1.09658e+01  7.12145e+00
       O -2.94462e-01  5.18993e+00  6.13575e+00
       H -1.02485e-01  5.20444e+00  4.31854e+00
       H -2.95928e-01  6.98677e+00  6.69031e+00
       O  3.95461e+00  1.25493e+01  6.13580e+00
       H  4.14651e+00  1.25638e+01  4.31854e+00
       H  3.95313e+00  1.43462e+01  6.69028e+00
192
# CELL(abcABC):   16.99620    29.43815    27.67315    90.00000    90.00000    90.00000  Step:          10  Bead:       6 positions{atomic_unit}  cell{atomic_unit}
       O -8.19148e+00 -9.90642e+00 -1.31683e+01
       H  7.36312e+00 -1.10515e+01 -1.35330e+01
       H -6.78432e+00 -1.08529e+01 -1.35598e+01
       O -3.97583e+00 -2.57299e+00 -1.32022e+01
       H -5.53883e+00 -3.58831e+00 -1.37912e+01
       H -2.36984e+00 -3.48992e+00 -1.37257e+01
       O -3.94721e+00 -1.25712e+01 -8.01080e-01
       H -3.88141e+00 -1.43612e+01 -2.27300e-01
       H -4.18786e+00 -1.27385e+01 -2.65945e+00
       O -8.21877e+00 -5.18213e+00 -8.40600e-01
       H -8.05917e+00 -6.99729e+00 -1.24967e-01
       H -8.49402e+00 -5.31278e+00 -2.64827e+00
       O -4.52409e+00 -1.21308e+01 -6.25189e+00
       H -6.22226e+00 -1.12265e+01 -6.57514e+00
       H -2.94980e+00 -1.11056e+01 -6.61303e+00
       O  8.19234e+00 -4.76126e+00 -6.28270e+00
       H  6.78693e+00 -3.68493e+00 -6.66556e+00
       H -7.37064e+00 -3.58758e+00 -6.59793e+00
       O  8.18220e+00 -9.53709e+00 -7.66908e+00
       H  8.23874e+00 -9.50408e+00 -9.48830e+00
       H  8.22156e+00 -7.79845e+00 -7.05772e+00
       O -4.53007e+00 -2.14810e+00 -7.65766e+00
       H -4.18526e+00 -2.03482e+00 -9.48528e+00
       H -4.63380e+00 -5.35231e-01 -6.98788e+00
       O -8.25525e+00 -9.95480e+00  6.46407e-01
       H  7.12017e+00 -1.10865e+01  1.48661e-01
       H -6.64201e+00 -1.10135e+01  2.59314e-01
       O -3.93872e+00 -2.54726e+00  6.55503e-01
       H -5.42908e+00 -3.76514e+00  2.92678e-01
       H -2.52825e+00 -3.68311e+00  3.26192e-01
       O -3.90360e+00 -1.25303e+01  1.30409e+01
       H -3.90021e+00 -1.43422e+01  1.37393e+01
       H -4.17752e+00 -1.24785e+01  1.12493e+01
       O -8.18702e+00 -5.16501e+00  1.30787e+01
       H -8.21089e+00 -6.92794e+00  1.35902e+01
       H -8.43189e+00 -5.44361e+00  1.10370e+01
       O -4.51043e+00 -1.21696e+01  7.58000e+00
       H -5.93996e+00 -1.09687e+01  7.13948e+00
       H -3.17980e+00 -1.10600e+01  7.33014e+00
       O  8.20771e+00 -4.77879e+00  7.58934e+00
       H  6.73046e+00 -3.82945e+00  7.24781e+00
       H -7.26234e+00 -3.58661e+00  7.06731e+00
       O  8.19706e+00 -9.54371e+00  6.11238e+00
       H  8.49213e+00 -9.53271e+00  4.30745e+00
       H  8.05237e+00 -7.87827e+00  6.70696e+00
       O -4.54717e+00 -2.18561e+00  6.08837e+00
       H -4.52370e+00 -2.13558e+00  4.44679e+00
       H -4.48587e+00 -4.23999e-01  6.76872e+00
       O -8.23422e+00  4.76476e+00 -1.32138e+01
       H  7.36547e+00  3.73389e+00 -1.37089e+01
       H -6.72946e+00  4.01347e+00 -1.35915e+01
       O -3.97381e+00  1.21506e+01 -1.31792e+01
       H -5.46330e+00  1.12970e+01 -1.36316e+01
       H -2.50780e+00  1.10707e+01 -1.35759e+01
       O -3.96018e+00  2.18881e+00 -8.10473e-01
       H -3.97070e+00  3.60583e-01 -3.02453e-01
       H -4.23611e+00  2.12695e+00 -2.65527e+00
       O -8.21954e+00  9.52215e+00 -7.64546e-01
       H -8.25344e+00  7.70740e+00 -2.02019e-01
       H -8.47640e+00  9.56928e+00 -2.56826e+00
       O -4.48605e+00  2.59794e+00 -6.27495e+00
       H -5.99024e+00  3.64965e+00 -6.53982e+00
       H -3.05437e+00  3.33977e+00 -6.79246e+00
       O  8.25547e+00  9.96010e+00 -6.23239e+00
       H  6.79588e+00  1.08121e+01 -6.42890e+00
       H -7.24291e+00  1.11806e+01 -6.65664e+00
       O  8.16230e+00  5.21295e+00 -7.69018e+00
       H  8.24711e+00  5.24706e+00 -9.45095e+00
       H  8.15969e+00  6.86498e+00 -7.07541e+00
       O -4.53911e+00  1.25162e+01 -7.71175e+00
       H -4.35960e+00  1.25630e+01 -9.36282e+00
       H -4.63463e+00  1.46762e+01 -7.18548e+00
       O -8.27379e+00  4.72738e+00  6.50928e-01
       H  7.30931e+00  3.72824e+00  3.03755e-01
       H -6.60409e+00  3.65657e+00  5.10695e-01
       O -3.99672e+00  1.21304e+01  6.61992e-01
       H -5.51697e+00  1.11355e+01  3.83918e-01
       H -2.44514e+00  1.12850e+01  2.94545e-01
       O -3.99449e+00  2.18435e+00  1.30524e+01
       H -4.02787e+00  2.41796e-01  1.37895e+01
       H -4.25559e+00  2.15033e+00  1.11899e+01
       O -8.19513e+00  9.51490e+00  1.30228e+01
       H -8.16105e+00  7.63903e+00  1.37153e+01
       H -8.27251e+00  9.56064e+00  1.10141e+01
       O -4.50051e+00  2.55630e+00  7.57833e+00
       H -5.98687e+00  3.50331e+00  7.24015e+00
       H -3.05275e+00  3.46474e+00  7.12267e+00
       O  8.25343e+00  9.94216e+00  7.59776e+00
       H  6.55118e+00  1.09349e+01  7.29389e+00
       H -7.36160e+00  1.09403e+01  7.13817e+00
       O  8.17731e+00  5.21028e+00  6.09380e+00
       H  8.35621e+00  5.06170e+00  4.22228e+00
       H  8.19503e+00  6.85998e+00  6.74425e+00
       O -4.54737e+00  1.25671e+01  6.15441e+00
       H -4.25126e+00  1.26400e+01  4.39448e+00
       H -4.61708e+00  1.44152e+01  6.65633e+00
       O  3.29284e-01 -9.94285e+00 -1.31727e+01
       H -1.20935e+00 -1.11585e+01 -1.34001e+01
       H  1.65966e+00 -1.10301e+01 -1.34351e+01
       O  4.50266e+00 -2.55432e+00 -1.31644e+01
       H  2.98631e+00 -3.62969e+00 -1.35117e+01
       H  6.19093e+00 -3.86791e+00 -1.35114e+01
       O  4.53980e+00 -1.25741e+01 -8.23701e-01
       H  4.46229e+00 -1.43657e+01 -1.12204e-01
       H  4.35495e+00 -1.25991e+01 -2.67604e+00
       O  3.29593e-01 -5.17324e+00 -7.65740e-01
       H  2.47077e-01 -6.88466e+00 -1.79786e-02
       H  1.05433e-01 -5.29949e+00 -2.59335e+00
       O  3.97706e+00 -1.21447e+01 -6.22633e+00
       H  2.41000e+00 -1.11492e+01 -6.62867e+00
       H  5.16607e+00 -1.12488e+01 -6.94628e+00
       O -2.63175e-01 -4.78839e+00 -6.21863e+00
       H -1.89113e+00 -3.77455e+00 -6.67469e+00
       H  1.26539e+00 -3.79242e+00 -6.83714e+00
       O -3.63115e-01 -9.53388e+00 -7.72029e+00
       H -6.23994e-02 -9.51870e+00 -9.38711e+00
       H -2.79334e-01 -7.72014e+00 -7.20032e+00
       O  3.91085e+00 -2.18018e+00 -7.67773e+00
       H  4.10031e+00 -2.17475e+00 -9.33906e+00
       H  4.02033e+00 -3.57930e-01 -7.21293e+00
       O  2.35598e-01 -9.93120e+00  6.54890e-01
       H -1.16163e+00 -1.09476e+01  1.98564e-01
       H  1.73975e+00 -1.09197e+01  3.68103e-01
       O  4.52465e+00 -2.54637e+00  6.49399e-01
       H  3.07249e+00 -3.61915e+00  2.19585e-01
       H  5.97406e+00 -3.51834e+00  3.85453e-01
       O  4.55529e+00 -1.25552e+01  1.30639e+01
       H  4.52979e+00 -1.43344e+01  1.35247e+01
       H  4.29021e+00 -1.25526e+01  1.13053e+01
       O  2.93149e-01 -5.18989e+00  1.30576e+01
       H  1.57278e-01 -6.96395e+00  1.35159e+01
       H  1.28588e-01 -5.25453e+00  1.11752e+01
       O  3.96103e+00 -1.21385e+01  7.55058e+00
       H  2.47957e+00 -1.10668e+01  7.25640e+00
       H  5.47641e+00 -1.10834e+01  7.12694e+00
       O -2.21887e-01 -4.76676e+00  7.61222e+00
       H -1.89223e+00 -3.69350e+00  7.29736e+00
       H  1.11651e+00 -3.70304e+00  7.12688e+00
       O -2.94993e-01 -9.52320e+00  6.14460e+00
       H -1.55535e-01 -9.61639e+00  4.30653e+00
       H -4.37547e-01 -7.84192e+00  6.53164e+00
       O  4.01125e+00 -2.13617e+00  6.13411e+00
       H  4.27996e+00 -2.19141e+00  4.33905e+00
       H  4.02848e+00 -3.65495e-01  6.53892e+00
       O  2.43716e-01  4.81164e+00 -1.31521e+01
       H -1.21467e+00  3.67016e+00 -1.37149e+01
       H  1.60948e+00  3.85338e+00 -1.36748e+01
       O  4.54576e+00  1.21394e+01 -1.31519e+01
       H  3.06635e+00  1.09871e+01 -1.36655e+01
       H  5.98713e+00  1.10746e+01 -1.36272e+01
       O  4.54545e+00  2.17310e+00 -7.70781e-01
       H  4.44411e+00  4.88676e-01 -6.01259e-02
       H  4.39234e+00  2.16611e+00 -2.52520e+00
       O  2.62889e-01  9.48536e+00 -7.38264e-01
       H  5.55852e-01  7.64495e+00 -1.32722e-01
       H  1.38316e-01  9.69115e+00 -2.60038e+00
       O  3.96199e+00  2.52898e+00 -6.19378e+00
       H  2.52751e+00  3.62739e+00 -6.47049e+00
       H  5.41722e+00  3.59900e+00 -6.76415e+00
       O -2.94153e-01  9.97749e+00 -6.25347e+00
       H -1.90734e+00  1.07578e+01 -6.70350e+00
       H  1.23441e+00  1.10091e+01 -6.69711e+00
       O -3.14491e-01  5.20704e+00 -7.70657e+00
       H  6.79128e-02  5.16493e+00 -9.48441e+00
       H -2.39083e-01  6.95525e+00 -6.97829e+00
       O  3.98798e+00  1.25736e+01 -7.73684e+00
       H  4.08853e+00  1.26738e+01 -9.52801e+00
       H  4.03645e+00  1.43111e+01 -6.98903e+00
       O  2.89015e-01  4.79875e+00  6.51363e-01
       H -1.25421e+00  3.66161e+00  2.20409e-01
       H  1.84025e+00  3.76019e+00  3.29991e-01
       O  4.54873e+00  1.21277e+01  6.94629e-01
       H  3.14100e+00  1.11730e+01  3.64784e-01
       H  6.21596e+00  1.13166e+01  3.02802e-01
       O  4.53859e+00  2.18586e+00  1.30610e+01
       H  4.47825e+00  2.77319e-01  1.35109e+01
       H  4.18549e+00  2.14823e+00  1.13285e+01
       O  3.33559e-01  9.48912e+00  1.30006e+01
       H  2.90608e-01  7.63907e+00  1.37190e+01
       H  1.27878e-02  9.46781e+00  1.13234e+01
       O  3.98136e+00  2.57048e+00  7.56331e+00
       H  2.45546e+00  3.29387e+00  7.18633e+00
       H  5.58280e+00  3.50191e+00  7.00699e+00
       O -2.40398e-01  9.90035e+00  7.64471e+00
       H -1.70337e+00  1.08777e+01  7.19440e+00
       H  9.65700e-01  1.10812e+01  7.27465e+00
       O -2.48931e-01  5.19962e+00  6.07295e+00
       H -1.83871e-01  5.14605e+00  4.16937e+00
       H -2.12967e-01  6.97473e+00  6.64209e+00
       O  4.00327e+00  1.25620e+01  6.13620e+00
       H  4.12986e+00  1.25851e+01  4.21065e+00
       H  3.86314e+00  1.44922e+01  6.68561e+00
192
# CELL(abcABC):   16.99620    29.43815    27.67315    90.00000    90.00000    90.00000  Step:          20  Bead:       6 positions{atomic_unit}  cell{atomic_unit}
       O -8.20932e+00 -9.92126e+00 -1.31434e+01
       H  7.22632e+00 -1.12150e+01 -1.36739e+01
       H -6.76046e+00 -1.10266e+01 -1.36000e+01
       O -4.00311e+00 -2.62071e+00 -1.32025e+01
       H -5.60907e+00 -3.72835e+00 -1.38011e+01
       H -2.27987e+00 -3.44694e+00 -1.36997e+01
       O -3.97681e+00 -1.25560e+01 -8.01107e-01
       H -3.91974e+00 -1.43570e+01 -3.13841e-01
       H -4.17312e+00 -1.29912e+01 -2.68526e+00
       O -8.21640e+00 -5.18176e+00 -8.20854e-01
       H -8.12163e+00 -7.01116e+00 -1.17015e-01
       H -8.54128e+00 -5.13513e+00 -2.58875e+00
       O -4.51246e+00 -1.21301e+01 -6.23484e+00
       H -6.16752e+00 -1.13774e+01 -6.74475e+00
       H -2.72949e+00 -1.11829e+01 -6.54133e+00
       O  8.19941e+00 -4.72451e+00 -6.25225e+00
       H  6.81713e+00 -3.56799e+00 -6.60098e+00
       H -7.23715e+00 -3.71210e+00 -6.65453e+00
       O  8.17079e+00 -9.52434e+00 -7.68038e+00
       H  8.26227e+00 -9.41696e+00 -9.40134e+00
       H  8.36510e+00 -7.71423e+00 -7.12060e+00
       O -4.54384e+00 -2.14471e+00 -7.68252e+00
       H -4.17998e+00 -1.95736e+00 -9.64950e+00
       H -4.66043e+00 -5.44997e-01 -7.03482e+00
       O -8.28970e+00 -9.94334e+00  7.00298e-01
       H  7.00516e+00 -1.11190e+01  1.62865e-01
       H -6.54084e+00 -1.12867e+01  9.31712e-02
       O -3.91333e+00 -2.55448e+00  6.93191e-01
       H -5.36820e+00 -3.65156e+00  4.16617e-01
       H -2.53038e+00 -3.86581e+00  3.48883e-01
       O -3.90268e+00 -1.25658e+01  1.29995e+01
       H -3.89659e+00 -1.43491e+01  1.37400e+01
       H -4.11858e+00 -1.26576e+01  1.11558e+01
       O -8.18393e+00 -5.16732e+00  1.30459e+01
       H -8.17899e+00 -6.95534e+00  1.36745e+01
       H -8.35565e+00 -5.40768e+00  1.11268e+01
       O -4.49007e+00 -1.22016e+01  7.59629e+00
       H -6.06070e+00 -1.08851e+01  7.19191e+00
       H -3.19535e+00 -1.08418e+01  7.45679e+00
       O  8.23592e+00 -4.78239e+00  7.60422e+00
       H  6.68400e+00 -4.01031e+00  7.40554e+00
       H -7.28322e+00 -3.47385e+00  7.16430e+00
       O  8.15119e+00 -9.54094e+00  6.11424e+00
       H  8.34842e+00 -9.69253e+00  4.35582e+00
       H  7.93270e+00 -7.91464e+00  6.73805e+00
       O -4.58554e+00 -2.19560e+00  6.10724e+00
       H -4.49937e+00 -1.82997e+00  4.49750e+00
       H -4.25950e+00 -4.80482e-01  6.73665e+00
       O -8.25192e+00  4.74108e+00 -1.32326e+01
       H  7.41089e+00  3.68657e+00 -1.37479e+01
       H -6.71321e+00  3.92988e+00 -1.35681e+01
       O -3.99147e+00  1.21612e+01 -1.31750e+01
       H -5.35381e+00  1.11069e+01 -1.34838e+01
       H -2.44044e+00  1.13195e+01 -1.34671e+01
       O -3.96735e+00  2.20116e+00 -8.45706e-01
       H -3.96060e+00  5.41222e-01 -1.81821e-01
       H -4.29701e+00  2.16600e+00 -2.57057e+00
       O -8.22250e+00  9.51073e+00 -7.86395e-01
       H -8.07092e+00  7.76586e+00 -1.81467e-01
       H -8.49838e+00  9.65596e+00 -2.58190e+00
       O -4.45953e+00  2.58778e+00 -6.29151e+00
       H -6.16332e+00  3.58220e+00 -6.62760e+00
       H -3.02091e+00  3.32960e+00 -6.82656e+00
       O  8.26938e+00  9.92423e+00 -6.26694e+00
       H  6.74132e+00  1.08414e+01 -6.33969e+00
       H -7.11695e+00  1.10618e+01 -6.68272e+00
       O  8.16688e+00  5.22390e+00 -7.67721e+00
       H  8.48344e+00  5.12792e+00 -9.30681e+00
       H  8.20548e+00  7.08802e+00 -7.18187e+00
       O -4.56603e+00  1.25125e+01 -7.67648e+00
       H -4.34972e+00  1.24518e+01 -9.36991e+00
       H -4.77851e+00  1.47963e+01 -7.10072e+00
       O -8.31744e+00  4.72585e+00  6.41948e-01
       H  7.37168e+00  3.75521e+00  3.66438e-01
       H -6.73335e+00  3.66288e+00  4.39995e-01
       O -3.99505e+00  1.21347e+01  6.75797e-01
       H -5.34763e+00  1.11366e+01  4.29274e-01
       H -2.50073e+00  1.12629e+01  3.30630e-01
       O -4.01924e+00  2.14895e+00  1.30337e+01
       H -3.95853e+00  2.51731e-01  1.37127e+01
       H -4.44230e+00  2.16680e+00  1.13034e+01
       O -8.20186e+00  9.52274e+00  1.30450e+01
       H -8.16756e+00  7.47979e+00  1.37603e+01
       H -8.37784e+00  9.60120e+00  1.07208e+01
       O -4.48371e+00  2.53751e+00  7.53426e+00
       H -5.89348e+00  3.51297e+00  7.17585e+00
       H -3.14634e+00  3.53538e+00  7.18849e+00
       O  8.25827e+00  9.95102e+00  7.59599e+00
       H  6.58377e+00  1.09219e+01  7.39517e+00
       H -7.48055e+00  1.10393e+01  7.12197e+00
       O  8.17916e+00  5.23227e+00  6.09758e+00
       H  8.36203e+00  5.28914e+00  4.20642e+00
       H  8.29133e+00  6.93715e+00  6.78678e+00
       O -4.51494e+00  1.25686e+01  6.14367e+00
       H -4.29122e+00  1.25415e+01  4.25030e+00
       H -4.45928e+00  1.43808e+01  6.94972e+00
       O  3.66973e-01 -9.91255e+00 -1.31918e+01
       H -1.24278e+00 -1.12225e+01 -1.32271e+01
       H  1.68447e+00 -1.10707e+01 -1.36242e+01
       O  4.54850e+00 -2.53698e+00 -1.30836e+01
       H  3.06157e+00 -3.64159e+00 -1.34663e+01
       H  6.11845e+00 -3.90245e+00 -1.34367e+01
       O  4.58934e+00 -1.25611e+01 -8.26667e-01
       H  4.42261e+00 -1.44825e+01 -1.16309e-01
       H  4.38431e+00 -1.24458e+01 -2.73821e+00
       O  3.36840e-01 -5.16131e+00 -7.56544e-01
       H  1.29838e-01 -6.94227e+00  7.98160e-02
       H  1.48549e-01 -5.23768e+00 -2.67856e+00
       O  3.98000e+00 -1.21302e+01 -6.24117e+00
       H  2.39007e+00 -1.11125e+01 -6.68379e+00
       H  5.36271e+00 -1.12212e+01 -6.99748e+00
       O -2.93346e-01 -4.79695e+00 -6.22064e+00
       H -1.82731e+00 -3.74453e+00 -6.64385e+00
       H  1.34030e+00 -3.84567e+00 -6.72560e+00
       O -3.53038e-01 -9.59475e+00 -7.70626e+00
       H  2.64886e-02 -9.45427e+00 -9.37474e+00
       H -3.25744e-01 -7.51499e+00 -7.17251e+00
       O  3.90564e+00 -2.17218e+00 -7.65614e+00
       H  4.19301e+00 -2.36856e+00 -9.44459e+00
       H  3.96387e+00 -4.36110e-01 -7.21071e+00
       O  2.26395e-01 -9.94803e+00  6.46012e-01
       H -1.15198e+00 -1.10347e+01  1.38668e-01
       H  1.68570e+00 -1.09371e+01  2.69736e-01
       O  4.56353e+00 -2.55149e+00  6.56718e-01
       H  3.04532e+00 -3.87359e+00  3.63399e-01
       H  6.16488e+00 -3.50806e+00  3.18705e-01
       O  4.57113e+00 -1.25814e+01  1.30677e+01
       H  4.52329e+00 -1.45351e+01  1.34961e+01
       H  4.13670e+00 -1.24231e+01  1.13478e+01
       O  3.03244e-01 -5.17277e+00  1.30996e+01
       H  1.83145e-01 -6.99357e+00  1.34908e+01
       H  1.82671e-01 -5.26883e+00  1.10721e+01
       O  3.95970e+00 -1.21473e+01  7.53865e+00
       H  2.52249e+00 -1.09954e+01  7.37782e+00
       H  5.31149e+00 -1.10003e+01  7.17046e+00
       O -1.68507e-01 -4.75322e+00  7.62974e+00
       H -1.97575e+00 -3.72752e+00  7.23985e+00
       H  1.24028e+00 -3.63474e+00  7.10453e+00
       O -2.84091e-01 -9.51275e+00  6.16465e+00
       H -9.82565e-02 -9.54513e+00  4.33422e+00
       H -4.91637e-01 -7.76497e+00  6.45260e+00
       O  4.03744e+00 -2.14931e+00  6.12261e+00
       H  4.35028e+00 -2.22781e+00  4.41658e+00
       H  4.19234e+00 -2.41779e-01  6.53114e+00
       O  2.17718e-01  4.79696e+00 -1.31285e+01
       H -1.26364e+00  3.72924e+00 -1.39775e+01
       H  1.60130e+00  3.86691e+00 -1.36108e+01
       O  4.54100e+00  1.21233e+01 -1.31534e+01
       H  3.01273e+00  1.08895e+01 -1.38630e+01
       H  6.00346e+00  1.10322e+01 -1.36493e+01
       O  4.53568e+00  2.22553e+00 -7.59001e-01
       H  4.45936e+00  6.12468e-01 -1.19962e-01
       H  4.27753e+00  2.22379e+00 -2.35682e+00
       O  2.46527e-01  9.48043e+00 -7.60076e-01
       H  6.73249e-01  7.53092e+00 -2.04411e-01
       H  2.07157e-01  9.59890e+00 -2.53191e+00
       O  3.98211e+00  2.57703e+00 -6.19041e+00
       H  2.58794e+00  3.63988e+00 -6.47652e+00
       H  5.29138e+00  3.75114e+00 -6.65178e+00
       O -3.13161e-01  9.94988e+00 -6.27941e+00
       H -2.06256e+00  1.07541e+01 -6.69052e+00
       H  1.26754e+00  1.09837e+01 -6.63068e+00
       O -3.45297e-01  5.20677e+00 -7.70851e+00
       H  1.83847e-01  5.08830e+00 -9.44029e+00
       H -2.57636e-01  7.09245e+00 -6.79535e+00
       O  3.99276e+00  1.25910e+01 -7.76492e+00
       H  4.15890e+00  1.26812e+01 -9.66516e+00
       H  3.93701e+00  1.42655e+01 -6.98376e+00
       O  2.81905e-01  4.80797e+00  6.74433e-01
       H -1.14579e+00  3.62925e+00  1.22643e-01
       H  1.75417e+00  3.81000e+00  5.14165e-01
       O  4.49889e+00  1.20886e+01  6.97358e-01
       H  3.06575e+00  1.10073e+01  3.26774e-01
       H  6.25378e+00  1.12828e+01  3.67299e-01
       O  4.50283e+00  2.24315e+00  1.30706e+01
       H  4.34386e+00  3.26987e-01  1.35058e+01
       H  4.36809e+00  2.12933e+00  1.13660e+01
       O  3.02868e-01  9.47055e+00  1.29910e+01
       H  2.39662e-01  7.59242e+00  1.37139e+01
       H -9.76429e-02  9.46351e+00  1.12623e+01
       O  3.97793e+00  2.58009e+00  7.57657e+00
       H  2.33219e+00  3.15875e+00  7.15540e+00
       H  5.76606e+00  3.49656e+00  7.04839e+00
       O -2.32881e-01  9.86286e+00  7.68079e+00
       H -1.63601e+00  1.07749e+01  7.13073e+00
       H  1.05327e+00  1.10831e+01  7.38028e+00
       O -2.38638e-01  5.19420e+00  6.05310e+00
       H -1.52258e-01  5.19476e+00  4.09979e+00
       H -1.62009e-01  6.98317e+00  6.68006e+00
       O  3.99319e+00  1.25806e+01  6.14153e+00
       H  4.12977e+00  1.28351e+01  4.13665e+00
       H  3.75043e+00  1.44946e+01  6.55300e+00
192
# CELL(abcABC):   16.99620    29.43815    27.67315    90.00000    90.00000    90.00000  Step:          30  Bead:       6 positions{atomic_unit}  cell{atomic_unit}
       O -8.21532e+00 -9.94072e+00 -1.30702e+01
       H  7.20860e+00 -1.12617e+01 -1.36887e+01
       H -6.64132e+00 -1.11164e+01 -1.37124e+01
       O -4.01396e+00 -2.61076e+00 -1.31540e+01
       H -5.48377e+00 -3.83778e+00 -1.38622e+01
       H -2.34910e+00 -3.51109e+00 -1.36961e+01
       O -3.97485e+00 -1.25247e+01 -8.22185e-01
       H -3.90862e+00 -1.43179e+01 -1.59377e-01
       H -4.24669e+00 -1.30829e+01 -2.72604e+00
       O -8.21024e+00 -5.17065e+00 -7.99095e-01
       H -8.28057e+00 -7.00870e+00 -5.27295e-02
       H -8.45885e+00 -4.98020e+00 -2.53079e+00
       O -4.50320e+00 -1.21736e+01 -6.21432e+00
       H -6.25469e+00 -1.12270e+01 -6.81829e+00
       H -2.77933e+00 -1.11860e+01 -6.72169e+00
       O  8.22234e+00 -4.68210e+00 -6.26201e+00
       H  6.69828e+00 -3.56499e+00 -6.72629e+00
       H -7.21879e+00 -3.80366e+00 -6.67274e+00
       O  8.18255e+00 -9.53649e+00 -7.67195e+00
       H  8.44030e+00 -9.40274e+00 -9.33752e+00
       H  8.25696e+00 -7.81447e+00 -7.33449e+00
       O -4.60059e+00 -2.14841e+00 -7.66795e+00
       H -4.20559e+00 -2.04749e+00 -9.73329e+00
       H -4.64408e+00 -3.97879e-01 -7.06363e+00
       O -8.28631e+00 -9.95108e+00  7.01047e-01
       H  6.94291e+00 -1.11855e+01  2.77150e-01
       H -6.67243e+00 -1.12171e+01  5.56725e-02
       O -3.89736e+00 -2.57269e+00  7.13732e-01
       H -5.30651e+00 -3.68174e+00  2.80923e-01
       H -2.56408e+00 -3.78864e+00  2.43375e-01
       O -3.92602e+00 -1.25618e+01  1.30269e+01
       H -3.95064e+00 -1.43828e+01  1.36394e+01
       H -4.13458e+00 -1.28957e+01  1.11082e+01
       O -8.18383e+00 -5.20854e+00  1.30400e+01
       H -8.04550e+00 -6.95402e+00  1.36316e+01