192
# CELL(abcABC):   16.99620    29.43815    27.67315    90.00000    90.00000    90.00000  Step:           0  Bead:      21 velocities{atomic_unit}  cell{atomic_unit}
       O -1.72425e-03 -1.10845e-04 -2.30590e-04
       H -2.93526e-03  2.70289e-03  1.40826e-03
       H  3.18514e-03 -4.86770e-03  1.85501e-03
       O  2.22832e-04  7.89454e-04 -1.95523e-04
       H -1.98939e-03 -3.21445e-03  5.04852e-03
       H  3.69543e-04 -5.06134e-04  3.33283e-03
       O -5.28390e-04 -1.26045e-03  9.58003e-04
       H -9.32934e-04 -3.17239e-03 -2.65811e-03
       H  5.09936e-04  2.37895e-03  4.25101e-03
       O  7.27878e-04  4.71067e-04 -1.17101e-04
       H -2.37540e-03 -2.44581e-03  1.84538e-03
       H -2.69708e-03 -2.21753e-03  1.13275e-02
       O  1.63700e-03 -1.53238e-03  5.34743e-04
       H -1.76824e-03  1.46277e-03  5.13379e-04
       H  4.50507e-03  1.27891e-03 -4.08040e-03
       O  3.72974e-04  4.03467e-04 -1.20374e-03
       H  3.28267e-03 -5.40109e-03  1.29192e-03
       H -1.03693e-03 -1.71427e-03 -2.81067e-03
       O -7.51764e-04  1.11155e-03  1.27528e-03
       H -3.57503e-03 -2.14064e-03 -1.33098e-03
       H -2.82247e-03 -5.19790e-03 -1.39599e-03
       O  9.61344e-04  6.39990e-04 -7.78369e-04
       H  6.51293e-03 -5.68647e-04 -1.12358e-03
       H -1.85958e-04 -2.06527e-03  6.80404e-03
       O  1.58576e-03 -4.61376e-04  3.02123e-04
       H  3.29565e-03 -6.74414e-03 -3.37493e-03
       H -5.50190e-03  2.23679e-03  7.88742e-03
       O -5.96840e-04  2.02026e-03  1.16043e-04
       H  4.00470e-05  4.57874e-03 -6.21549e-04
       H -4.86604e-04  1.30717e-03 -5.52912e-03
       O -2.02644e-04  8.14212e-04 -1.03853e-03
       H -3.87851e-03  2.10246e-03  2.14562e-03
       H  6.09318e-03  4.75190e-04  6.70803e-03
       O  1.23657e-03 -9.81735e-04  1.39157e-03
       H  1.53956e-03 -3.37206e-03 -8.80764e-04
       H -3.54892e-03  1.01678e-03  1.65247e-03
       O  1.44859e-03 -8.49135e-04 -9.57536e-04
       H  3.76502e-03 -2.14019e-03  4.45188e-04
       H  4.22563e-03  9.27443e-03  5.34024e-04
       O  9.52296e-05  1.27179e-03 -2.12107e-03
       H  6.64984e-04  1.16819e-03  2.96393e-03
       H  7.44789e-04  1.06151e-03 -3.27304e-04
       O -1.15660e-03  1.02062e-03 -4.92637e-04
       H -1.83792e-03  5.41425e-03  6.02575e-03
       H  6.04376e-03  3.43756e-03 -2.31446e-03
       O -3.77822e-04  5.45462e-04  1.31287e-05
       H  1.37001e-03 -4.44050e-03  8.89350e-04
       H -4.63867e-03  8.37473e-03 -4.58501e-04
       O -1.93306e-04  2.60707e-04 -6.65281e-04
       H -5.23084e-04 -2.53855e-03  1.24150e-03
       H -5.86951e-03 -3.78046e-03 -1.56023e-03
       O  1.22770e-03 -7.67674e-04 -9.83480e-04
       H  9.97502e-04  5.71149e-05 -3.30695e-03
       H  4.40448e-03 -2.18763e-03  1.94589e-03
       O  3.31695e-04  1.90090e-04  1.00723e-03
       H  4.27791e-03  8.48678e-04  5.14815e-04
       H  2.65699e-03 -1.68823e-03  3.12508e-03
       O  4.38697e-05 -8.59885e-04  8.03455e-05
       H -5.84172e-03 -1.69907e-03  5.02899e-03
       H  3.53316e-03  8.73605e-03  1.20011e-03
       O  1.23731e-04  7.49076e-04  2.28894e-03
       H  5.12087e-03 -4.52185e-04  1.70754e-03
       H  8.58570e-04  9.96108e-03 -6.14144e-03
       O -8.68680e-04 -7.49511e-05 -3.48633e-04
       H -5.42617e-03 -1.55568e-03 -4.02576e-03
       H -6.64510e-03  5.94876e-03  2.79793e-03
       O  1.93095e-04 -5.59467e-04  6.67648e-04
       H  1.86980e-03  3.91559e-04 -4.51155e-03
       H  9.94852e-03 -3.05682e-03  4.53575e-03
       O  5.96301e-05 -8.59261e-04 -4.60928e-04
       H  3.16692e-03  5.29945e-03 -9.03269e-04
       H  3.10678e-03  2.86991e-03 -6.04502e-03
       O -2.43811e-05 -6.35987e-04 -4.45457e-04
       H -4.63074e-04 -3.18234e-05 -9.10695e-03
       H -2.54177e-03 -2.97329e-03  4.90533e-03
       O  9.30718e-04 -6.42703e-05  1.11387e-03
       H -3.69753e-03 -3.30062e-03  4.30073e-03
       H -2.61595e-03  5.88080e-04 -3.41688e-03
       O -9.33732e-04 -1.32249e-03  5.51699e-04
       H -5.46839e-03  2.52439e-03 -6.00689e-03
       H  4.84826e-03  8.04355e-04  1.23337e-03
       O -2.08886e-04 -8.11829e-04  6.01034e-04
       H -6.96375e-03  3.69782e-03  1.06073e-03
       H  6.42330e-03  1.77786e-03 -3.09841e-03
       O -6.27668e-04 -2.12178e-04  4.07201e-04
       H -3.57912e-03 -9.78834e-04  5.23431e-03
       H -1.47448e-04  2.07270e-03 -6.88018e-03
       O -1.21496e-03  4.55068e-04  1.57241e-03
       H  3.37022e-04  1.05178e-02  2.07870e-03
       H -1.45366e-03  3.15149e-04 -1.46265e-04
       O  2.55314e-03 -7.21003e-04  3.05667e-04
       H  5.88109e-03  9.62031e-03 -7.11682e-04
       H  2.76541e-03 -1.54051e-03 -3.86017e-04
       O -5.48197e-04  2.02287e-03  2.43135e-04
       H -7.14159e-03 -5.54142e-03  7.32572e-04
       H  3.22900e-03 -2.62180e-03  6.02081e-03
       O -7.46287e-04  2.21696e-03 -2.53701e-04
       H -4.46198e-03  5.86465e-03 -9.53972e-03
       H  1.24292e-03 -2.84167e-03 -5.32163e-03
       O  8.46740e-04 -9.87095e-05 -6.12989e-04
       H  5.02883e-03 -5.44453e-04  2.38438e-04
       H -2.26516e-03 -2.12585e-03  9.64468e-04
       O  1.31408e-03 -7.56878e-04 -1.14116e-03
       H -8.41915e-04 -2.52740e-03  3.96713e-04
       H -3.23298e-03  2.96090e-03 -6.16461e-03
       O  7.48304e-04 -3.27560e-04 -2.87140e-04
       H -2.03332e-03  9.07941e-04  2.24343e-03
       H  2.23043e-03  2.38541e-03 -6.24600e-04
       O  8.17413e-04  1.13887e-03  8.06721e-04
       H -7.92709e-04 -2.21611e-03  2.19261e-03
       H  6.89388e-04  6.39689e-03 -3.01670e-03
       O -7.20791e-04  6.45061e-05  2.96516e-04
       H  2.85045e-03 -1.24676e-03 -5.82192e-04
       H -6.44406e-03  7.06759e-03 -1.30167e-03
       O  1.81504e-03 -4.57009e-04 -1.10917e-05
       H -4.52635e-03  2.79281e-03  2.29036e-03
       H  1.78603e-03 -4.67030e-03 -1.29523e-03
       O  8.05103e-04  4.79929e-04 -8.49198e-04
       H -6.30800e-03 -1.54182e-03 -1.68762e-03
       H  1.94670e-03 -1.64256e-04 -9.66129e-04
       O  2.91825e-05  1.21800e-03 -7.92683e-04
       H  7.40065e-03  4.45623e-03  2.24652e-03
       H -9.92742e-04  4.53484e-04 -1.90759e-03
       O -1.01785e-04  2.75103e-04  1.32572e-05
       H  1.79285e-03  2.15234e-03 -1.43237e-03
       H -4.85293e-03  1.61177e-03 -2.59341e-05
       O -3.74046e-04  1.45586e-03 -1.74582e-04
       H  2.65091e-03  2.07859e-03 -8.01912e-04
       H  4.08741e-03  3.83285e-03  5.36352e-03
       O  1.37027e-03 -2.51970e-04  7.06621e-04
       H  6.17955e-04 -6.94136e-03  5.40648e-03
       H  7.57394e-03 -1.84735e-03 -4.25789e-04
       O  3.67106e-04  1.55785e-03 -5.01645e-04
       H -3.67144e-04 -7.80184e-03  7.97988e-04
       H  5.76633e-03  2.68779e-03  2.51364e-03
       O  2.64586e-03  1.17689e-04 -1.83495e-04
       H -9.01266e-03 -9.81491e-03 -5.17882e-03
       H -2.50864e-03 -3.45564e-03  6.35976e-03
       O -7.38214e-04 -9.40673e-04  3.24854e-04
       H -2.88033e-03 -9.65738e-05  6.27407e-03
       H  7.10008e-03 -3.17410e-03  2.11764e-03
       O -4.44733e-04  1.13545e-03  4.05589e-04
       H  8.53387e-04 -5.01774e-03 -5.80908e-04
       H -2.19305e-03  1.66596e-03  1.25534e-03
       O  6.72962e-04  7.95593e-04  3.20724e-04
       H  4.45801e-03  1.67557e-03 -2.82293e-03
       H  8.04174e-04 -1.09904e-03 -5.72461e-04
       O -1.66790e-05  3.79856e-04 -2.77295e-04
       H -4.85580e-03  2.44828e-04  5.37002e-03
       H  3.33707e-03 -2.73947e-04  9.75418e-03
       O -4.66686e-04 -1.14313e-03  3.19397e-04
       H  2.36303e-03 -2.44562e-03 -3.78065e-03
       H -3.98185e-03  3.91305e-03  3.35212e-03
       O  4.61160e-04  1.57707e-03 -1.11779e-04
       H -8.45565e-03 -4.11757e-03 -8.75361e-04
       H  4.32953e-03  1.07180e-03  7.80224e-03
       O  7.35639e-04  3.67427e-04  2.30350e-04
       H  1.51466e-03 -2.81625e-03 -1.57469e-03
       H  1.93187e-04  3.57984e-04  5.03935e-04
       O  5.33610e-04 -8.21261e-04  4.89601e-05
       H -2.52297e-03 -2.44567e-03  1.18316e-03
       H  1.96701e-03 -2.64246e-03 -1.13457e-03
       O -2.64270e-04  1.67940e-03 -1.55487e-03
       H  2.16274e-04  5.33610e-03  2.35287e-03
       H  7.44780e-03  4.59470e-03 -1.90441e-03
       O -8.75926e-04 -9.12110e-04 -1.76672e-03
       H -7.70167e-04  3.69283e-03  3.18447e-03
       H -1.10270e-02  2.25997e-03 -8.54587e-04
       O -8.26921e-04  8.93618e-05  6.97221e-04
       H -2.37924e-03  1.18833e-03 -6.42661e-04
       H -2.58475e-03 -2.90929e-03  3.14872e-04
       O -4.64716e-04  2.03409e-04 -7.95673e-04
       H -2.35280e-03  8.08590e-03  3.18750e-03
       H  1.40926e-03 -7.46130e-04 -4.04872e-03
       O -1.09858e-03 -1.11596e-04 -1.69840e-04
       H  7.36116e-03 -8.05473e-03  6.46642e-03
       H -5.74360e-04 -3.56912e-03  4.17136e-04
       O -7.02603e-04  8.52855e-07 -3.20406e-04
       H  4.78955e-03 -5.66438e-03 -1.83115e-03
       H -3.60493e-03 -1.08121e-03  3.28290e-03
       O -8.43480e-04 -6.03814e-04 -3.74625e-04
       H -4.94810e-03 -5.00734e-03 -9.61733e-03
       H  4.32097e-03 -1.40489e-03  2.23186e-03
       O -1.24721e-03  1.77161e-03 -1.43117e-03
       H -4.97765e-03 -7.12783e-04 -2.56119e-03
       H  3.91683e-03 -9.19133e-05 -3.49546e-03
       O -8.98850e-05  1.54015e-03  5.78619e-04
       H -5.50338e-05 -3.55769e-03  4.73901e-03
       H  2.27781e-03 -6.90519e-03 -5.16570e-03
       O  1.25710e-04 -5.70283e-04  8.98159e-05
       H -1.49166e-03  4.98674e-04 -1.19942e-03
       H -5.98603e-03 -2.28666e-04 -9.09321e-04
192
# CELL(abcABC):   16.99620    29.43815    27.67315    90.00000    90.00000    90.00000  Step:          10  Bead:      21 velocities{atomic_unit}  cell{atomic_unit}
       O -1.74821e-04 -1.75924e-04  4.00224e-04
       H  7.28011e-03 -2.90800e-03  4.08144e-03
       H  6.17387e-04  5.81315e-03 -1.24988e-03
       O  1.13683e-04  1.14601e-04  2.09025e-03
       H  6.35871e-04 -3.45838e-03 -4.47833e-03
       H -5.89238e-03  4.56885e-04 -2.86727e-03
       O -7.18440e-04  1.88763e-04 -5.48240e-04
       H -4.22037e-03  1.88090e-03  8.51631e-03
       H  1.84409e-03  6.59478e-04 -2.62774e-03
       O -5.00676e-04  4.95305e-05  3.84372e-04
       H  1.11377e-03  9.55545e-03  3.68108e-03
       H  1.84187e-03  3.12657e-03 -5.57000e-03
       O -4.23190e-04  8.14758e-04 -2.54037e-04
       H  3.42385e-04  1.63833e-03 -3.84984e-03
       H  7.53208e-04  1.75483e-03 -3.04003e-03
       O -1.32754e-04  2.15762e-04 -1.50881e-03
       H  7.31080e-05 -3.54187e-03  1.65958e-03
       H  6.14983e-03 -1.50656e-03  2.66323e-03
       O -3.68790e-04 -9.31966e-04 -1.43097e-03
       H  3.03588e-03  3.20678e-03 -1.11722e-03
       H -6.18999e-03 -2.65389e-03 -4.98654e-03
       O -6.81405e-04 -8.48920e-04 -2.63091e-04
       H  3.41344e-03 -4.74731e-04 -2.47131e-03
       H  6.76647e-04 -3.73853e-03 -4.05850e-03
       O -1.39914e-03  2.38680e-03  4.44041e-04
       H -5.50858e-04  3.05709e-04  1.57172e-03
       H -8.90631e-03 -3.51677e-03 -3.12583e-03
       O  7.01635e-04 -3.17328e-05 -1.36373e-04
       H  3.43145e-03 -4.45584e-03 -1.76842e-03
       H  2.10512e-03 -8.77859e-04  3.23968e-03
       O  1.53292e-04 -1.28841e-03  1.75031e-03
       H  4.58654e-03 -5.06285e-03 -3.03561e-04
       H -6.97929e-03  2.82061e-03  6.41839e-03
       O  1.05772e-03 -3.15693e-04  2.02159e-03
       H  2.21207e-03 -6.97229e-04 -6.01058e-03
       H -7.63962e-04  2.01179e-03 -4.31198e-04
       O  3.93074e-04  2.88053e-04 -2.99907e-04
       H  1.15885e-03  6.55095e-04  5.70312e-03
       H -3.04786e-03  5.31759e-03 -4.97648e-04
       O  2.45219e-04 -1.30910e-03 -3.90746e-04
       H -3.85885e-03 -5.57489e-03  7.37432e-05
       H  6.38225e-03 -4.48435e-04 -4.79795e-03
       O  6.70769e-04  8.80855e-05 -1.59646e-05
       H -3.10596e-03 -1.29462e-03 -4.94431e-03
       H  8.39474e-03  9.39198e-05 -4.57505e-03
       O -4.17255e-04 -8.19296e-05  1.23371e-03
       H  2.13255e-03 -1.31027e-03 -7.42915e-03
       H -8.79646e-04  2.32681e-03  2.60474e-03
       O  6.73459e-04 -7.05851e-04  1.20776e-03
       H -9.33635e-04  9.07468e-04 -2.32664e-03
       H  1.15505e-03 -6.28397e-04 -2.87894e-03
       O  9.42550e-04  9.73983e-04  4.36953e-05
       H -1.80740e-03  4.19024e-03 -3.96679e-04
       H -5.96060e-03 -6.58890e-03 -3.99928e-03
       O -7.44586e-04  1.01670e-03 -1.66578e-03
       H -1.05485e-03 -1.15797e-03 -1.22879e-03
       H -3.16652e-03  3.29998e-03 -1.56223e-03
       O -8.77338e-04  1.17086e-03  1.92569e-03
       H -2.35011e-03 -2.64947e-03  6.88482e-03
       H -5.29282e-03 -4.60922e-03  1.71095e-03
       O  1.84284e-04  1.59012e-04 -4.45819e-04
       H -1.78844e-03  1.12550e-04 -3.10867e-03
       H  6.82089e-04  5.27017e-03  3.57081e-03
       O -1.60877e-03  1.31194e-03 -1.33071e-03
       H  3.74056e-03 -4.08687e-03 -3.44093e-03
       H -8.91800e-04 -2.22531e-05 -4.91204e-03
       O -8.54480e-05  9.93703e-04  3.22134e-04
       H -2.69829e-03 -1.09104e-04  2.98552e-03
       H -2.84115e-04  1.95922e-03  2.32902e-03
       O  9.25785e-04 -2.46789e-04 -1.09800e-03
       H -2.86894e-03 -4.38192e-03 -9.72920e-04
       H -2.89850e-03 -7.87219e-04  2.37067e-03
       O -5.39225e-04  2.64323e-04 -2.12182e-03
       H  8.01196e-04 -1.52522e-03 -2.29699e-03
       H  6.25805e-03  1.21776e-03 -2.46688e-03
       O -1.77609e-04 -2.32060e-04  1.00072e-03
       H -4.84877e-04 -1.10708e-03  4.29068e-03
       H -2.11422e-03 -8.32419e-03  5.56833e-04
       O  5.44322e-04  2.34328e-04  4.81931e-04
       H -1.25664e-04 -1.80428e-03 -2.66820e-03
       H -2.34440e-03 -2.95831e-03 -3.18428e-05
       O  1.06718e-03  4.56317e-04  1.69679e-03
       H  5.68548e-03  3.38260e-05 -6.06979e-03
       H  6.13378e-03 -1.08814e-03  4.45495e-03
       O  1.01723e-05  6.80667e-04 -4.09592e-04
       H  1.84991e-03 -4.21704e-03 -2.80819e-03
       H  1.29957e-03 -1.04251e-02  7.48028e-04
       O -6.22157e-04 -5.68157e-04 -6.44167e-04
       H  4.08903e-04 -1.36418e-03  2.27285e-03
       H -4.00878e-03 -2.23795e-03 -2.38197e-03
       O  1.29412e-03 -1.61780e-04  9.00333e-04
       H  6.10470e-03 -1.12329e-03 -1.14065e-03
       H -4.62083e-03  4.63982e-03 -2.37268e-03
       O  1.02844e-03 -6.13672e-04 -7.11531e-04
       H  9.70791e-04 -1.82503e-03 -3.03077e-04
       H -3.56074e-03  6.06451e-03 -8.83011e-03
       O -9.94778e-04 -5.05294e-04  7.55200e-04
       H -4.69962e-03  4.05959e-03 -2.50842e-03
       H -7.71597e-03  2.68231e-03  3.69715e-03
       O -1.30187e-03 -5.13831e-04 -9.54373e-04
       H -2.09464e-03 -1.77474e-03 -6.79017e-03
       H -7.71716e-04  1.59244e-03  3.42176e-03
       O  2.46091e-04  9.21791e-04  2.24355e-04
       H  7.07403e-03  2.53139e-03 -1.36140e-03
       H  1.83664e-03  2.34224e-03 -1.29956e-04
       O -3.64995e-04 -1.51673e-03 -1.36747e-03
       H -9.36934e-04 -2.08737e-03  1.05861e-03
       H  6.68898e-04  6.44020e-03  1.11481e-03
       O -2.10438e-03 -5.66545e-05 -2.97261e-04
       H  9.68597e-04 -7.95373e-04 -6.29843e-03
       H  2.72035e-03  6.34965e-03  5.30523e-04
       O -9.30622e-06 -9.71393e-04 -2.82999e-04
       H -3.71385e-03  7.55911e-03 -5.28562e-03
       H  2.49602e-03  5.68339e-04 -4.72946e-04
       O  2.39223e-03  3.97635e-04  2.91674e-04
       H -5.50724e-03  1.71854e-03 -8.53890e-04
       H  2.08612e-03 -4.02507e-03 -6.50121e-03
       O  4.96419e-04 -5.73769e-04 -9.67644e-04
       H  1.07477e-03  1.09655e-03  1.43310e-04
       H -3.03290e-03  1.96308e-03  3.77094e-05
       O -1.14940e-03  7.53069e-04  8.19987e-04
       H -1.62200e-03 -3.15712e-03 -8.33877e-03
       H -8.25145e-03  5.63342e-03  4.75061e-03
       O -7.83699e-04 -8.97068e-04 -1.81981e-03
       H -9.24592e-04 -8.15495e-05  1.77939e-03
       H  2.88924e-03  2.51576e-03 -2.31441e-03
       O -1.29550e-03 -1.73706e-04  5.20530e-04
       H -6.31093e-03  4.12134e-03 -1.21956e-03
       H  6.81054e-04 -2.37596e-05 -4.36874e-03
       O  8.26618e-05  1.67659e-05 -7.23602e-04
       H -5.60614e-04  3.87968e-03  1.91754e-03
       H  2.76594e-03  2.09101e-03 -3.48211e-03
       O -4.21667e-04  7.93826e-04 -4.86886e-04
       H  3.25954e-04 -6.37513e-03  1.54059e-03
       H  2.15922e-04  9.04506e-03  2.59658e-04
       O  5.08097e-04  1.60612e-04  5.13809e-04
       H -3.66388e-03 -2.54767e-03  8.76776e-03
       H -7.75294e-04  9.86424e-04 -5.74839e-04
       O  1.97790e-04  7.77241e-04  2.47197e-04
       H -2.35412e-03  9.91203e-04 -2.01328e-03
       H -3.66933e-03  3.46602e-04  4.92434e-04
       O -1.13579e-03 -4.94897e-04  9.49238e-04
       H -1.92206e-03 -2.07186e-04 -2.34289e-03
       H  2.23508e-03 -4.46909e-03  1.99429e-03
       O -8.80563e-04  6.76735e-04 -7.25745e-04
       H  2.65671e-03 -4.85839e-03 -4.92190e-04
       H -1.46999e-03 -1.26601e-03 -4.36962e-06
       O -2.03938e-03 -2.06613e-04  2.02109e-03
       H  1.00436e-03 -2.77384e-03  1.53522e-03
       H -4.16452e-03 -1.66384e-03 -3.28934e-03
       O -3.70581e-04 -1.09422e-03 -7.22822e-04
       H  5.03770e-04 -3.49895e-03 -1.92929e-03
       H -3.50109e-03  2.28798e-04  3.39350e-03
       O -1.31056e-03 -1.00783e-04 -1.01130e-04
       H -3.52305e-03  1.37799e-03  1.38102e-03
       H  1.48585e-03  3.98423e-05 -8.56086e-04
       O -4.24463e-04  7.58823e-04 -7.27186e-04
       H -4.67949e-04 -1.33795e-03 -3.81028e-03
       H  5.58627e-05 -9.36906e-03 -3.68237e-03
       O  9.93291e-04  4.89999e-04 -4.78087e-04
       H -1.40017e-03 -2.89902e-04  1.74678e-03
       H  3.36306e-03 -1.01458e-04 -5.41094e-04
       O -5.96450e-04 -1.07374e-03  1.51161e-03
       H  6.58376e-03 -3.44076e-03  3.95787e-03
       H -2.84459e-03 -1.31171e-03 -2.86188e-03
       O -1.40175e-03 -6.27756e-04 -9.42619e-04
       H  6.13957e-03  4.30949e-03 -4.49890e-03
       H  3.60673e-03  3.16387e-03 -4.22315e-03
       O  9.42353e-04 -9.58910e-04  4.87560e-05
       H  9.97979e-04 -1.98687e-03 -2.04323e-03
       H -8.52961e-04  5.54178e-04 -4.06323e-03
       O -4.15042e-04  3.56968e-04 -3.62171e-04
       H  3.58293e-03  4.22559e-03  2.63320e-03
       H  1.75845e-03 -2.77899e-03  1.33568e-03
       O -4.31010e-04  5.29675e-04 -3.16483e-04
       H  2.83462e-03  4.41223e-03 -3.66002e-03
       H -1.50134e-03  5.53798e-03  5.09062e-03
       O  9.16935e-04 -1.40182e-04 -9.13927e-04
       H -4.89582e-03  4.70101e-03 -2.50822e-03
       H  5.91686e-03  6.69875e-04 -6.88849e-04
       O -4.28668e-04 -5.32559e-04  6.89345e-05
       H -9.32841e-04  1.98353e-03 -4.50597e-03
       H -2.58318e-03 -4.97793e-03 -1.41500e-03
       O -1.53387e-03 -6.46966e-04  1.20359e-03
       H -5.30317e-03  4.44136e-03  5.70502e-04
       H  5.07899e-04  1.56931e-03 -6.46794e-03
       O  1.02103e-03  1.72226e-03 -1.58529e-03
       H  1.63125e-03  4.03325e-04  2.49421e-04
       H -1.94255e-03  2.06177e-03  3.45607e-03
       O -1.38038e-03  5.07550e-04  4.44559e-04
       H -1.67034e-03  7.06326e-03  3.87058e-04
       H  1.28784e-03  6.70424e-04 -1.88659e-03
192
# CELL(abcABC):   16.99620    29.43815    27.67315    90.00000    90.00000    90.00000  Step:          20  Bead:      21 velocities{atomic_unit}  cell{atomic_unit}
       O  4.95283e-04  1.36440e-03  9.45662e-04
       H -3.79313e-04 -1.32531e-03 -4.58065e-03
       H  5.41365e-03 -2.54948e-03 -3.25832e-03
       O  1.01532e-03 -8.87502e-04  5.48061e-04
       H -4.22019e-04  6.31591e-03  5.09361e-03
       H  1.15012e-03  2.53139e-04  2.69387e-03
       O -4.08874e-04  1.64231e-03  4.81820e-04
       H -4.05723e-03 -9.97380e-04  2.70921e-03
       H -2.83982e-03  2.60388e-04 -7.13650e-05
       O -2.91732e-04  6.34798e-04 -7.54515e-04
       H  3.36712e-03  3.09982e-03 -5.83983e-04
       H -1.81289e-03  3.63081e-03 -5.77091e-03
       O -1.98676e-03 -4.64280e-04 -3.82347e-04
       H -2.19147e-03 -7.04965e-03  3.61398e-03
       H  6.26883e-03 -7.31421e-04  6.08643e-03
       O  1.08485e-03 -1.00468e-03 -4.53388e-04
       H -4.86621e-03  3.43669e-03  3.53277e-03
       H -4.27106e-04  3.28022e-03  6.74054e-03
       O  2.02860e-03 -6.51136e-04 -2.52600e-04
       H  1.67907e-03  2.34236e-03 -1.06885e-03
       H  4.26859e-03  1.01097e-03  1.26944e-03
       O  4.83958e-04  9.57299e-04 -5.48683e-04
       H  2.72002e-04  8.58820e-04  5.04402e-03
       H -2.41682e-03 -4.57758e-03 -1.57723e-03
       O -3.53615e-04 -3.99876e-05 -1.42179e-03
       H -3.24323e-04  1.60553e-03  4.87476e-03
       H  2.35572e-03 -3.40532e-03  8.43316e-04
       O -2.77676e-04 -1.34533e-04  2.15834e-03
       H -1.67753e-03 -5.89840e-03  2.18609e-03
       H -1.89755e-03  3.37123e-03 -5.02810e-04
       O  1.47827e-05 -7.81444e-05  4.25052e-04
       H  4.35299e-04 -3.90673e-04  4.62647e-03
       H  7.44152e-04 -2.67283e-03 -9.06160e-04
       O  1.33089e-04  4.02291e-04 -9.46346e-04
       H  2.90307e-03  2.54887e-03 -6.95191e-04
       H -3.69991e-03  3.94079e-03  3.67864e-04
       O -1.17070e-03  1.61503e-04  4.43435e-04
       H  5.01909e-03  5.99868e-03 -4.68014e-03
       H -9.74499e-04 -2.52116e-03  4.51034e-03
       O -6.37571e-04  1.35881e-03  5.32542e-04
       H  3.27663e-03 -1.48130e-03 -6.85171e-03
       H  2.33454e-04  2.42931e-03  2.05569e-03
       O -6.50908e-04  1.08517e-03  2.80263e-04
       H  4.43769e-03  4.25644e-04 -1.46637e-03
       H -6.18609e-03 -3.93186e-03  5.27755e-03
       O  1.33894e-03  7.02952e-04 -1.08438e-03
       H  6.15067e-03  1.25443e-04  4.48813e-04
       H  2.11255e-04 -3.79320e-03 -3.62938e-03
       O -5.93443e-04  9.44303e-04 -1.10729e-03
       H -9.83444e-05 -7.13561e-05 -6.43311e-04
       H -7.41995e-03  7.62742e-03  3.65922e-05
       O  9.49997e-04  7.27000e-04 -1.29717e-03
       H  4.48109e-03 -1.22976e-03 -5.20964e-04
       H -5.62800e-03  3.43835e-03  2.49132e-03
       O -1.02602e-03 -1.01296e-04 -2.39465e-03
       H -6.41069e-04  1.36254e-03 -1.41650e-03
       H -7.73025e-04 -5.30020e-03 -1.04224e-03
       O -1.04422e-03 -1.01074e-03 -1.90319e-04
       H  3.11122e-03  4.32063e-04  3.26044e-03
       H  2.95410e-03 -3.23982e-03 -3.20537e-04
       O  7.26439e-04  4.74032e-04  8.12195e-04
       H -4.21121e-04  1.27872e-03  2.63194e-03
       H -2.71034e-03  2.09742e-03 -3.30136e-03
       O -4.58262e-04 -1.81027e-03 -5.77425e-04
       H  5.74973e-03  6.07196e-03 -5.37809e-03
       H  1.74797e-03  8.37924e-04 -1.49106e-03
       O  7.61849e-04 -7.13070e-04 -1.54891e-03
       H  1.12202e-03 -6.59083e-03  1.66514e-03
       H -3.67018e-03  3.32191e-04 -1.09458e-03
       O -3.32112e-04  1.25085e-03  3.10779e-04
       H -1.45843e-03  8.19451e-04  5.67896e-04
       H -2.18396e-03 -6.06716e-04  3.21748e-03
       O -1.16831e-03 -1.26850e-03  3.52281e-04
       H  1.71729e-03 -1.53089e-04 -2.58486e-03
       H  2.14187e-03 -1.49936e-04  3.24487e-03
       O  4.84686e-04 -6.37642e-05 -1.60173e-03
       H -9.49418e-04 -3.10676e-03  1.93444e-04
       H  1.62020e-03  1.17523e-04  7.25841e-04
       O  1.66173e-03  2.04760e-03  9.92139e-05
       H  1.52206e-03 -1.19532e-03 -1.81365e-03
       H  2.47135e-03  5.08443e-04 -7.48733e-04
       O -9.20113e-05  7.75103e-04 -9.14835e-04
       H  6.29541e-03  1.69796e-03  1.66085e-03
       H  5.27581e-03  4.44735e-03  4.01733e-03
       O  4.92687e-04 -6.99203e-04 -6.02449e-05
       H -1.54067e-03  2.01587e-03  1.78920e-04
       H -3.56651e-03 -3.00106e-03 -7.05341e-03
       O  4.04096e-04  2.12335e-03 -1.11421e-03
       H  4.85524e-03  2.04844e-03  6.08722e-03
       H -4.08978e-03 -2.56091e-03 -9.55268e-04
       O -4.45271e-04  2.51810e-04  5.39633e-05
       H  1.32326e-03 -2.79470e-03  3.28471e-03
       H -4.17031e-03 -6.09175e-03  4.83896e-03
       O  5.15070e-06  1.76736e-03 -2.87409e-04
       H -4.03930e-03  1.98833e-03  4.17988e-04
       H  2.95723e-03 -2.62240e-03 -2.03616e-03
       O  4.14970e-04  1.61255e-03 -1.04843e-03
       H  3.71497e-03  6.56829e-03 -4.66685e-03
       H  3.48212e-03 -5.03162e-04  1.21605e-03
       O  9.55510e-04 -9.82377e-04 -8.65371e-04
       H -1.90789e-03 -7.58773e-03 -3.45374e-03
       H  2.03291e-03 -1.43675e-03  3.88324e-03
       O -2.87654e-04 -2.10268e-03  5.30995e-04
       H  6.87608e-03 -6.61089e-03  4.12278e-03
       H -3.42278e-03  8.06865e-03  3.32309e-03
       O -8.32523e-04  5.89231e-04 -1.36926e-03
       H  3.07786e-03 -9.35491e-04  2.02668e-03
       H -5.31521e-03  4.17519e-03 -6.87713e-04
       O  1.09249e-05  5.26380e-04 -7.19452e-04
       H  6.96107e-03  5.75170e-03 -6.06539e-03
       H -2.41480e-03  2.08784e-03 -5.64993e-03
       O  1.97852e-04  1.82035e-04 -7.90518e-05
       H  1.13677e-02 -5.41765e-03  4.30622e-04
       H -3.51026e-03 -2.60937e-03  2.19286e-03
       O  7.89756e-04 -2.68071e-04  1.77288e-04
       H -3.68040e-03  6.98031e-04  7.04334e-04
       H -4.75509e-03  3.38974e-03  9.92701e-04
       O -1.01310e-04 -6.52738e-04  1.30192e-03
       H -4.73662e-03 -4.26190e-03 -1.26045e-03
       H  4.24739e-03 -1.42126e-03  8.20467e-04
       O  6.28219e-05  2.15371e-03  4.76767e-05
       H -2.93011e-03 -2.55753e-03 -5.09408e-03
       H  3.74312e-04  4.00596e-04  3.65376e-03
       O -1.17368e-03 -8.65408e-04  2.43953e-04
       H  4.54040e-03 -3.14025e-03  3.15696e-03
       H  1.88160e-03  2.17365e-03  7.11249e-03
       O  7.75349e-04  6.21100e-04  1.99685e-04
       H -5.60965e-03  5.39666e-03  2.00727e-04
       H -1.00646e-02  1.53315e-03  3.67539e-03
       O -4.51203e-04  1.42176e-03  8.94119e-04
       H -5.44820e-03  2.50323e-03 -1.39577e-03
       H -6.55501e-03  2.72425e-03  4.41338e-03
       O  8.54132e-04 -7.49028e-04 -3.90993e-04
       H -3.00011e-03  2.92339e-03 -1.95362e-03
       H  3.79419e-03  3.66523e-03 -1.07317e-03
       O -8.24435e-04 -8.95065e-04  3.14312e-04
       H  4.99904e-03 -5.02035e-03  2.83403e-04
       H  2.95910e-03  7.78634e-03 -1.88890e-03
       O -3.65402e-04 -3.37259e-04  6.20838e-04
       H  3.26487e-03  9.52875e-04  6.04747e-03
       H -1.63007e-03  3.14925e-03 -1.74086e-03
       O  9.40766e-04  1.09531e-03  5.90543e-04
       H -2.83409e-03  2.46567e-04 -5.67502e-03
       H -4.55532e-03 -3.44959e-03 -2.90242e-03
       O  8.73812e-04  4.04926e-04  1.85262e-03
       H  1.85843e-03 -1.28016e-03 -5.03096e-03
       H  7.09705e-03 -3.16150e-03 -1.98606e-03
       O -1.71488e-03 -1.59501e-03 -5.87164e-04
       H  1.70338e-03  6.12943e-04  2.06525e-03
       H  3.98470e-03  2.82526e-03 -3.16836e-03
       O  1.25553e-03  9.31096e-05  5.67318e-05
       H -5.50775e-03  1.99065e-03  3.70030e-03
       H  1.40270e-03  7.87313e-03  3.68903e-03
       O  1.34374e-03 -1.26660e-03 -8.27145e-04
       H  3.83745e-03  1.58596e-03  2.41755e-03
       H  9.72930e-03  6.20934e-03  6.66228e-03
       O  4.52178e-05 -5.66668e-04 -4.82063e-04
       H  2.75926e-03  6.45038e-04 -7.79564e-05
       H -1.41158e-03  2.33680e-03  1.97252e-03
       O -1.63986e-03 -8.89575e-04 -1.03124e-04
       H -6.75086e-04 -5.68183e-04  3.62538e-03
       H  5.32628e-04  3.21550e-04 -1.39502e-03
       O -3.55006e-04  6.27593e-04  1.05908e-03
       H -7.97949e-04 -5.60520e-03 -1.06287e-04
       H -5.80359e-03 -6.28528e-04 -3.70069e-03
       O -9.34423e-06 -7.51465e-04 -6.09889e-05
       H  4.54592e-03 -5.73224e-04  3.57876e-03
       H -2.56752e-03 -1.37362e-03 -1.08067e-03
       O -1.21683e-04 -1.33024e-04  3.03652e-04
       H  3.80180e-03 -2.97183e-03 -1.07195e-03
       H  6.12545e-03 -3.83801e-03  7.88623e-03
       O  4.12982e-04  1.18792e-03 -1.37738e-03
       H -1.30146e-03  1.50481e-03 -2.12686e-03
       H -8.09993e-03  3.70077e-03 -7.50550e-04
       O  1.42947e-03  1.96483e-04  5.26997e-04
       H  4.02845e-03 -3.18015e-03  3.44291e-04
       H  4.21733e-04  4.52633e-03  6.82185e-06
       O -5.49404e-05 -1.55341e-03  6.21775e-04
       H -1.12159e-03  2.08580e-03 -1.08291e-03
       H -2.85899e-03 -6.37561e-03 -2.24487e-03
       O  6.63450e-05 -1.20966e-03  6.75590e-04
       H -1.07274e-03 -4.40988e-03  2.65595e-03
       H -7.46578e-04 -5.46987e-04 -4.49430e-03
       O -2.71789e-04  6.98161e-04 -8.06849e-04
       H -2.79988e-04 -1.41366e-03  8.75530e-03
       H -6.71747e-03 -1.21041e-03 -7.90952e-04
       O -8.78938e-04  1.09182e-04  6.35695e-04
       H -4.18995e-04  2.07200e-03 -6.83573e-03
       H  4.79141e-04 -1.00854e-03 -6.85537e-03
       O -9.48663e-04 -6.65701e-04  3.21158e-04
       H -1.13467e-03 -4.48619e-03  7.16865e-03
       H -7.33647e-03 -6.07067e-03  1.56597e-03
192
# CELL(abcABC):   16.99620    29.43815    27.67315    90.00000    90.00000    90.00000  Step:          30  Bead:      21 velocities{atomic_unit}  cell{atomic_unit}
       O -5.12966e-04 -1.44137e-03 -1.03619e-04
       H  1.06313e-03  6.60614e-03  2.80762e-03
       H  1.88087e-03 -6.69831e-04 -1.06010e-03
       O  1.22010e-03  6.57058e-04  3.16607e-04
       H -1.02895e-02 -7.53559e-04  1.60461e-03
       H -4.12372e-04  1.36631e-03 -1.34152e-03
       O  1.26749e-03 -3.84872e-04 -1.20816e-04
       H -6.52931e-03 -1.58253e-03 -1.00708e-04
       H -1.40891e-03 -3.36388e-03  2.33952e-03
       O  1.44743e-03 -1.19884e-04 -3.40018e-04
       H -2.11216e-03 -6.29857e-03 -3.03170e-03
       H  5.40172e-03  2.16420e-03 -3.99459e-03
       O  5.79818e-04  1.77977e-03  4.78224e-05
       H  1.14672e-03 -1.25644e-03 -2.39150e-03
       H -1.81500e-03 -4.30061e-03  4.16395e-03
       O -2.65962e-05 -1.58281e-03 -2.87753e-04
       H  2.14788e-04  6.96717e-03 -2.24794e-03
       H  8.39254e-04  6.40060e-03  2.63181e-03
       O  5.16921e-04  1.43725e-03  2.53218e-04
       H  1.32210e-03 -8.93611e-04  1.52809e-03
       H  9.64665e-04 -3.32853e-04 -8.32494e-05
       O  1.37520e-03 -1.12006e-03  1.90305e-05
       H -2.58357e-03  1.83751e-03 -4.41171e-03
       H  1.93993e-03  1.60763e-03 -9.70854e-03
       O  8.29158e-04 -1.78112e-05  7.98121e-04
       H  4.32455e-04 -1.40474e-03  1.84589e-03
       H -4.26954e-04  2.18283e-03  2.55066e-03
       O  8.97932e-04 -8.98961e-04  2.02046e-03
       H -1.02368e-02  2.30909e-03  1.79828e-03
       H  1.03806e-03 -4.31606e-03 -3.64707e-03
       O -1.92076e-03 -1.26812e-03 -6.06900e-04
       H -5.75435e-03  3.65340e-03  2.10262e-03
       H  1.59543e-03  3.15069e-04  4.13155e-03
       O  1.57716e-03 -3.24519e-04 -3.99780e-04
       H  3.16138e-03  1.54783e-03 -1.56884e-03