192
# CELL(abcABC):   16.99620    29.43815    27.67315    90.00000    90.00000    90.00000  Step:           0  Bead:      15 velocities{atomic_unit}  cell{atomic_unit}
       O -4.15724e-04  5.83407e-04  3.96011e-04
       H -3.85800e-03 -4.93515e-03 -2.38025e-03
       H -4.15514e-03 -5.87386e-04  4.62408e-04
       O -8.01561e-04  9.01182e-04 -5.94699e-04
       H  1.78988e-05 -3.83013e-03  6.18862e-03
       H -4.95310e-03 -2.95023e-03 -5.22774e-03
       O -7.47169e-04  9.29240e-04  1.26706e-03
       H  1.13909e-03  1.89120e-04  3.72247e-03
       H -7.12007e-03  5.03813e-03  6.00094e-03
       O  5.95351e-04 -7.68277e-04  2.05849e-03
       H -2.20656e-03 -1.83965e-03 -2.37427e-03
       H  6.88641e-03 -2.88479e-03  3.53261e-04
       O -1.13127e-03  7.12092e-04  1.41146e-03
       H -1.54805e-03 -1.03263e-03  3.66215e-03
       H  2.65597e-03 -8.22548e-03 -2.30799e-03
       O  3.94058e-04 -6.06836e-04  1.89222e-03
       H  1.73041e-03  5.36859e-03 -1.84429e-03
       H  4.07462e-04  3.48441e-03 -6.34080e-03
       O -4.41031e-04  2.68371e-03 -5.14760e-04
       H -2.08843e-03  5.05805e-03  6.84123e-04
       H -3.58232e-04  6.02946e-04  4.83584e-03
       O -8.42454e-04 -6.70930e-04 -5.46762e-04
       H -2.99733e-03 -1.61216e-03  2.54994e-03
       H -5.80829e-03 -2.66515e-03  4.89559e-04
       O -4.57913e-04  2.66166e-04  1.66591e-03
       H  6.63070e-04  2.60962e-03 -4.33644e-03
       H -3.79640e-03  6.25663e-03  1.34570e-03
       O -8.11521e-05 -1.11723e-03 -4.48837e-04
       H -6.73101e-03  1.58370e-03  2.71451e-04
       H  1.04431e-04  1.83087e-03  2.92347e-03
       O  9.59920e-04  4.60912e-04 -1.98836e-05
       H -2.78385e-03  1.74634e-03  2.38982e-03
       H  6.30639e-03 -7.24665e-04  5.66482e-04
       O -2.31330e-04  3.64925e-04 -1.75562e-03
       H -2.42422e-03 -7.78381e-05 -5.53586e-04
       H -2.29179e-03  2.81513e-03 -5.46106e-03
       O -8.44409e-04  9.78037e-04  5.70692e-04
       H -2.34650e-04 -1.02067e-03 -1.29348e-03
       H  6.34484e-04 -9.20535e-04 -3.56940e-03
       O  4.03371e-04 -1.69793e-04 -1.47242e-03
       H  1.91010e-04  4.81317e-03  4.40134e-03
       H  1.45161e-03 -1.29183e-03 -2.41765e-03
       O -9.01153e-04  5.12167e-04 -1.34206e-04
       H -7.58830e-03  3.55829e-03  1.81792e-03
       H  3.87418e-03 -2.17811e-03  3.34704e-03
       O  3.28997e-04  1.65943e-03 -4.36989e-04
       H -1.85165e-03 -2.69529e-03  1.03545e-03
       H  5.87496e-04  1.18817e-03  5.04719e-03
       O -5.52822e-04 -9.22700e-04  9.46956e-04
       H -4.73384e-05  3.97032e-04  3.09233e-04
       H -1.28597e-03 -8.33535e-03 -8.92629e-03
       O -9.34228e-04 -9.32100e-04 -1.83203e-03
       H -6.00197e-03 -2.17497e-03  1.07553e-03
       H  3.42652e-03  5.98290e-04 -3.26767e-03
       O -8.83717e-05 -5.17858e-04  1.99623e-03
       H -4.31153e-04 -5.33301e-04  3.19166e-03
       H  3.51772e-03 -2.90560e-03  6.26497e-03
       O -6.05202e-04 -5.90470e-04 -1.14243e-04
       H -1.93961e-04 -7.88821e-03 -6.96018e-03
       H -4.85196e-03  2.62744e-04  1.99751e-03
       O  5.03255e-04  3.23330e-04 -2.64847e-04
       H -2.86296e-03 -5.95282e-03 -4.95119e-04
       H  8.28479e-04 -1.92789e-03  5.08947e-04
       O  7.25048e-05  4.13691e-04 -2.12523e-03
       H  5.64774e-03  9.14457e-03  9.18288e-04
       H  1.86920e-03 -3.60733e-03  3.25175e-03
       O  1.67314e-04  1.18407e-03 -8.12726e-04
       H -3.30661e-03 -2.73370e-03  2.59880e-03
       H -1.58348e-03  6.33128e-03 -3.38331e-03
       O  1.29487e-04 -1.48816e-03  8.30853e-04
       H -5.00060e-03 -6.35400e-03 -4.80004e-03
       H  5.16127e-03 -1.80684e-03 -2.21186e-03
       O  1.64810e-04 -1.51938e-04 -1.89596e-04
       H  1.01139e-03 -3.05094e-03 -4.06595e-03
       H  7.05541e-03 -2.18295e-03 -5.78424e-03
       O  2.94357e-04 -3.63529e-04 -7.60797e-04
       H  1.14233e-03 -6.30081e-04  5.49357e-03
       H  2.69170e-04  1.80734e-03  2.76304e-03
       O  6.54557e-04  1.68297e-03 -1.34220e-03
       H -4.44788e-03  5.26584e-05 -4.60620e-04
       H -2.90382e-03 -5.01142e-04 -2.50054e-03
       O -1.06961e-03 -4.54318e-04  5.12552e-04
       H  3.56248e-03 -3.82949e-03  6.28856e-03
       H -6.59294e-03 -3.05976e-03 -7.75007e-03
       O -9.25960e-04  1.43999e-04  1.20129e-03
       H -3.82134e-03 -1.87615e-03  1.17633e-04
       H  4.88161e-03  1.18082e-03  1.43730e-03
       O  3.96792e-04 -6.34316e-04 -3.64133e-04
       H  1.25570e-03 -7.18880e-03 -7.52888e-03
       H  2.19126e-04 -5.65380e-03  1.32764e-03
       O  2.96049e-04  3.51733e-04 -1.07037e-03
       H -2.73697e-03  8.52295e-04  2.92312e-04
       H -6.76553e-03 -7.82287e-04  9.85062e-04
       O -5.32858e-04 -9.79299e-04  2.30625e-05
       H  3.46337e-03 -5.96421e-04  3.49128e-03
       H  5.37130e-04  2.65851e-03 -3.12564e-03
       O -1.55122e-03 -1.04972e-04  5.32742e-05
       H -1.18264e-03  5.23393e-03  1.53367e-03
       H  1.36964e-03 -3.22549e-03  1.71146e-03
       O  6.81676e-04 -1.10441e-04 -9.88807e-04
       H -2.44888e-04 -1.09536e-04 -4.27540e-04
       H  1.29779e-03 -3.46332e-03 -6.58924e-03
       O  9.59431e-04 -1.01306e-03 -6.68345e-04
       H -1.48665e-03  3.03452e-04 -2.69372e-03
       H  4.91539e-03  2.64380e-03  6.40183e-03
       O  6.84438e-04 -5.66271e-04  1.10012e-03
       H  1.40502e-03 -2.83079e-03 -1.09074e-03
       H  4.87455e-03 -4.13068e-04  8.62496e-04
       O -1.90150e-03 -1.18534e-03  1.14336e-03
       H -2.69545e-04 -2.97485e-03  4.61669e-04
       H -3.28048e-03 -4.12953e-03  1.53960e-03
       O  8.32982e-04 -1.01841e-03 -1.20239e-03
       H -9.37620e-03  1.01700e-03  2.14434e-03
       H  4.89833e-03 -3.09059e-03 -3.38631e-03
       O -2.24863e-04  9.86261e-04  6.77523e-04
       H  1.79534e-05 -2.56888e-03 -3.94635e-03
       H -3.60952e-03 -7.41211e-03  6.15423e-04
       O  1.74598e-03 -2.63994e-03  1.86085e-03
       H -4.54325e-03  1.42598e-03  2.61092e-03
       H  2.11480e-03 -1.30177e-04  1.18279e-03
       O -5.54449e-04 -3.07915e-04  7.63496e-04
       H  4.55481e-03  1.35804e-03  3.46586e-03
       H -3.36280e-03  2.88383e-04 -2.58178e-03
       O  7.41710e-04 -1.21694e-03  9.97644e-05
       H -2.19491e-03  1.61088e-03  1.14667e-03
       H  2.62907e-03  2.51652e-03 -3.74353e-03
       O -1.03190e-04  2.67307e-03 -2.51556e-04
       H -2.75444e-03  9.57500e-04  2.13134e-03
       H -6.19667e-03 -3.93714e-03 -4.40719e-03
       O  6.20963e-04 -2.12953e-03  1.78851e-04
       H -5.01276e-03 -8.40674e-04  2.98094e-03
       H  1.07978e-03  1.36554e-03  1.46966e-03
       O  1.10098e-03  9.14208e-04 -3.34832e-04
       H  1.95199e-03 -1.08293e-03 -5.02741e-03
       H -4.51259e-03 -7.51576e-04 -4.10679e-03
       O -8.62236e-04 -6.77885e-05  5.89342e-04
       H -1.75052e-03 -2.39904e-03 -1.74346e-03
       H  1.87664e-03 -1.36128e-03  7.59257e-03
       O  1.97905e-05 -8.61958e-04  4.91359e-05
       H -3.11428e-03  1.83061e-03 -1.97516e-03
       H  3.43785e-03  1.92120e-03  6.50478e-03
       O  9.67739e-04  3.42471e-04  5.57670e-05
       H  1.92963e-03  4.86285e-03 -2.10778e-03
       H -1.56728e-03 -2.44806e-03 -6.96660e-03
       O  1.16521e-03  1.56346e-03 -7.55843e-04
       H -1.08875e-03  1.21366e-04  3.13942e-03
       H -9.71048e-04 -2.73241e-03 -4.19943e-03
       O -1.88231e-04  1.97691e-04  5.44937e-04
       H  2.75143e-03  5.10703e-03  7.03991e-04
       H  1.93975e-03  8.77678e-03 -9.29754e-04
       O -1.27157e-03  3.68675e-04  2.07940e-04
       H  3.44642e-03  4.93963e-03  2.95128e-03
       H  3.21696e-03 -6.88649e-05  4.15176e-03
       O  4.43255e-05  1.18926e-04 -1.47725e-03
       H  1.70894e-03  1.35228e-03  9.53211e-04
       H -2.07071e-04  4.20895e-03  6.77675e-03
       O  2.86884e-04  2.57704e-04  3.57806e-04
       H  2.92977e-03 -8.37502e-03 -9.77211e-04
       H  2.58221e-03  2.40454e-03 -7.98702e-03
       O -1.06974e-03  3.16149e-04  2.17263e-04
       H  3.09122e-03 -7.52550e-03  1.02938e-03
       H -4.07230e-04 -4.58979e-03  6.49768e-03
       O -4.16729e-05  1.03671e-04  6.14409e-04
       H  4.85229e-03  8.44285e-03  2.67287e-03
       H -6.80286e-04  2.44288e-03 -2.65501e-03
       O  1.26758e-03 -2.08185e-04 -3.70505e-04
       H -8.57210e-04 -4.95553e-03 -2.43092e-03
       H  5.20120e-03 -1.98895e-03  1.40614e-03
       O  6.82979e-05 -4.63712e-04  2.58496e-05
       H  1.29989e-03 -5.61669e-03 -5.31137e-04
       H -2.63903e-03 -6.84676e-03 -6.35320e-03
       O -2.26834e-04  3.84094e-05  1.17218e-03
       H -4.12886e-03  1.01824e-03  4.25330e-03
       H -6.45135e-04  3.62348e-03 -4.55191e-03
       O -1.38308e-03  8.98467e-04  7.18220e-04
       H  3.30219e-04  1.17852e-03  2.45521e-03
       H  2.71291e-03 -3.65824e-03 -3.10502e-03
       O -5.98641e-04 -1.25037e-03  2.42900e-04
       H  2.43095e-03  2.91787e-03  2.51661e-03
       H  5.35369e-03 -3.18530e-03  2.52202e-03
       O  6.38778e-04 -4.06017e-05  2.08250e-04
       H  6.04055e-04 -7.45816e-03  2.84355e-03
       H -3.08712e-03  3.37947e-03 -3.35182e-03
       O  4.54570e-04  5.08944e-06 -6.84143e-04
       H -3.66052e-03  2.48925e-04  2.97885e-03
       H  6.02162e-03 -7.77367e-03  8.81167e-03
       O -1.52849e-03 -9.20615e-04  1.40839e-03
       H -4.40233e-03  1.68799e-03  3.59351e-03
       H  3.31340e-03 -2.24299e-03  7.16515e-04
       O  4.93167e-04  6.55085e-04  4.68062e-04
       H  8.00748e-04 -4.20075e-03  4.44844e-03
       H -7.37308e-04  5.01649e-05  7.53082e-03
192
# CELL(abcABC):   16.99620    29.43815    27.67315    90.00000    90.00000    90.00000  Step:          10  Bead:      15 velocities{atomic_unit}  cell{atomic_unit}
       O  9.90955e-04 -2.23361e-04  5.12716e-04
       H  8.53145e-04 -1.05204e-03  2.37455e-03
       H -6.90360e-04 -8.61721e-03  1.91324e-03
       O  7.45791e-04 -3.27531e-04 -3.44556e-04
       H -4.39168e-03  3.94797e-03  1.08039e-03
       H  2.78322e-03  1.53485e-03 -2.88537e-03
       O -1.91023e-04 -5.15426e-04  7.66116e-04
       H -4.84378e-03 -2.32384e-03  4.09306e-03
       H -1.09084e-03 -4.76426e-03  1.13858e-03
       O -1.76758e-04 -1.11284e-03 -4.14872e-04
       H -3.28378e-03 -3.13870e-03  2.08946e-03
       H  2.39874e-03  3.70271e-03  4.00756e-03
       O -3.45311e-04  7.35742e-04  1.92720e-03
       H  6.06709e-03 -1.24943e-03  2.21498e-03
       H -7.17450e-04  1.64996e-03  2.41213e-03
       O -1.00176e-03  2.06652e-03 -1.18889e-03
       H  3.72916e-03 -3.89252e-04 -4.95369e-03
       H  1.65215e-03 -1.15096e-03 -2.15576e-04
       O -1.30233e-03  2.78498e-04  7.17865e-04
       H  6.06477e-03 -3.00544e-03  1.03918e-03
       H -2.51222e-03 -2.25801e-03 -3.27891e-04
       O  5.59494e-04  6.03920e-04 -1.83992e-03
       H -7.19041e-04  7.02515e-03 -4.94747e-04
       H -4.03479e-03  1.65590e-03 -6.60843e-04
       O  1.15928e-03  2.10274e-03 -4.19542e-04
       H -1.92524e-04  1.11109e-04  4.83768e-03
       H  2.32961e-03 -2.05506e-03 -1.98922e-03
       O -3.72138e-04 -2.43315e-03  5.35776e-05
       H  2.94146e-03 -5.04673e-03  2.43491e-03
       H -2.37595e-03 -2.32209e-03 -2.87203e-03
       O  9.13037e-04  9.30893e-04 -2.13672e-04
       H -8.42243e-04 -1.80027e-03  4.30339e-03
       H -3.32329e-03 -1.57954e-03  9.68440e-04
       O  1.24862e-03  8.43479e-04 -4.90151e-04
       H  1.53309e-03  1.38461e-03 -4.73463e-03
       H  4.35162e-03 -4.33864e-03 -3.96701e-03
       O -1.10935e-03 -4.73673e-04 -1.87472e-04
       H  4.63158e-03  1.56189e-03  1.62154e-03
       H  4.29325e-03 -7.17118e-04 -3.14630e-03
       O  4.31947e-04  1.29089e-03  2.52000e-05
       H  3.57993e-04  2.49497e-03 -2.53878e-03
       H -3.22571e-04  8.16368e-03  6.38761e-03
       O -3.85806e-04  3.35563e-05  1.28669e-03
       H -1.03372e-03  2.84496e-03  2.70276e-03
       H -4.42911e-03 -2.38114e-03  4.36786e-04
       O -5.30977e-04  8.20573e-04 -4.05020e-04
       H -8.63301e-04 -1.76609e-03 -1.32444e-03
       H  1.93377e-03  5.09909e-03 -4.12302e-03
       O -4.53764e-04 -2.29933e-03  4.31866e-04
       H -1.30900e-03  4.25211e-04 -1.10811e-03
       H  2.45898e-03  1.39069e-03  3.43656e-03
       O -4.74231e-04  4.70530e-04  9.16755e-04
       H -1.76133e-04  5.00032e-03 -1.39491e-03
       H -3.33704e-03  7.04292e-05 -2.56180e-04
       O  1.76105e-03  5.17736e-05 -1.89643e-03
       H  1.83646e-03  2.09178e-03 -1.88612e-03
       H  9.06124e-04 -5.24540e-03  2.22111e-03
       O  3.38467e-04  5.47031e-04 -1.59784e-03
       H  3.22881e-03  3.10252e-03  2.51564e-03
       H -1.30091e-03 -8.62498e-04 -4.64563e-03
       O -1.05718e-03  5.47213e-05 -1.82607e-04
       H  3.13057e-03  6.97593e-03 -4.70583e-04
       H -8.15202e-05  9.24613e-04  8.14630e-03
       O -1.81303e-03 -7.43078e-04  8.35152e-04
       H  4.71940e-03 -4.93637e-03 -1.57075e-03
       H -2.17546e-03 -3.47526e-03 -6.88724e-04
       O -9.18839e-04  4.39172e-05 -3.21043e-05
       H -2.73145e-03 -3.67314e-03 -4.24377e-03
       H -6.16923e-04 -2.28232e-03 -1.09707e-03
       O -3.37793e-04 -5.03651e-04 -1.54095e-03
       H -3.02207e-03  1.07667e-03  3.35730e-03
       H  2.26594e-03  9.13417e-04 -6.84883e-04
       O -3.61249e-05 -7.84751e-04 -6.93839e-04
       H  1.46395e-03  1.87783e-03  8.61773e-04
       H  1.99444e-04  5.01451e-05 -2.26930e-03
       O -8.64397e-05 -1.66891e-03 -1.15807e-03
       H -6.28263e-03  2.04649e-03  1.40232e-03
       H -2.07008e-03  4.31442e-03  8.44801e-03
       O  1.58436e-03  1.03767e-03  5.17886e-04
       H -3.50561e-04  3.29552e-03 -4.07733e-03
       H -4.60355e-03 -1.20405e-03 -1.87377e-03
       O  1.36162e-03  6.58946e-04 -2.03015e-04
       H -3.91721e-03  2.11240e-03  3.76567e-04
       H -4.68984e-04  1.48538e-03  5.12057e-03
       O -1.18500e-03  3.37295e-04 -1.69091e-05
       H -8.21053e-04 -4.47626e-03  3.66919e-03
       H  5.36535e-04 -8.12017e-04 -3.52880e-03
       O -5.28203e-04  2.34780e-04  5.39562e-04
       H -1.04052e-03  2.85885e-03 -3.23033e-03
       H  3.61500e-03  4.25514e-03  1.02286e-03
       O  8.05646e-04  1.08252e-03 -5.45945e-04
       H -5.83496e-04  3.21248e-03 -3.69602e-03
       H  2.03794e-03  1.18246e-03  4.35586e-03
       O -1.58599e-03  1.29457e-04 -9.47201e-04
       H  7.70743e-04  1.79000e-03  6.05872e-03
       H -3.71638e-03  7.99733e-04  1.00388e-02
       O  3.27323e-04 -1.17516e-04 -1.45583e-05
       H  1.45105e-03 -6.08412e-03 -1.23799e-03
       H -3.24979e-03  6.08505e-03 -8.79188e-04
       O  8.34834e-04 -1.49567e-04  5.80991e-04
       H  2.59049e-03  1.72387e-03  5.37607e-03
       H -3.22326e-03  5.36767e-03  5.81092e-04
       O -2.58226e-04 -2.09606e-03  1.44005e-04
       H  2.10557e-03  3.70648e-03 -3.92238e-03
       H  1.34728e-03  8.45071e-04 -3.41481e-04
       O  2.53741e-04  6.53604e-04  6.12322e-04
       H  1.91865e-03 -1.32493e-03  2.33422e-03
       H  2.30200e-03  1.31852e-03  5.66957e-03
       O -9.38823e-04 -1.10572e-03  1.71062e-04
       H -2.11771e-03 -2.88582e-03 -7.13471e-03
       H  1.03148e-02  1.93335e-03 -1.49601e-03
       O  1.07405e-03  2.95221e-04  3.14583e-04
       H -7.37034e-03 -7.50829e-03  1.55997e-03
       H  6.09158e-04 -7.41474e-03 -4.49103e-03
       O -1.95211e-05 -1.36555e-03 -8.64237e-04
       H -5.54607e-04 -5.31766e-03  1.18878e-03
       H  7.54918e-05  4.23841e-03 -2.51078e-03
       O  3.31090e-04 -5.62002e-04  4.05315e-04
       H -5.45832e-03 -2.52956e-03  2.86219e-03
       H  1.36307e-03 -1.90080e-03  4.09658e-03
       O  5.58655e-04 -7.92257e-05  8.63068e-04
       H  4.62277e-03  1.79433e-03  3.15910e-03
       H  7.35650e-04  2.08632e-03 -2.11148e-03
       O  1.65062e-05 -4.16594e-04 -1.07090e-03
       H  3.08868e-03 -3.81315e-03  2.54085e-04
       H -1.17511e-03  3.29124e-03  3.62794e-03
       O -6.52345e-04  8.46531e-04  6.84586e-04
       H -7.93201e-04  1.90264e-04 -4.11218e-04
       H  1.11843e-03  2.18218e-03  2.78438e-03
       O  8.68809e-04 -8.51005e-05 -1.54299e-03
       H  4.98739e-03  2.92645e-03  3.38246e-03
       H -1.45059e-03 -1.96230e-03  2.18904e-04
       O -3.30660e-04  2.59950e-05 -1.03331e-03
       H  3.93384e-03  8.00968e-04  5.14497e-03
       H  8.11930e-04 -1.73234e-04  6.65503e-03
       O  1.29904e-04  3.66239e-04 -1.52831e-04
       H  3.86757e-03 -1.37728e-03  1.58981e-03
       H  8.70316e-04 -1.10918e-03  3.18369e-03
       O -1.57301e-04  9.17843e-04  6.49719e-04
       H -2.72310e-03 -5.73565e-03  6.09731e-03
       H -5.23094e-03  5.11146e-03 -3.40593e-04
       O  7.98448e-05 -7.95771e-04  1.42763e-03
       H  7.85221e-03 -5.12195e-03 -5.53412e-04
       H  4.19549e-03  1.41280e-03  4.57100e-03
       O  5.28190e-04 -8.46952e-04  4.13356e-04
       H  4.60794e-03 -5.23448e-04 -4.71383e-03
       H  1.90615e-03 -7.80573e-04 -4.31185e-03
       O -2.83842e-04  1.69965e-03 -4.76502e-05
       H  6.00655e-04 -4.46096e-03 -2.43870e-03
       H -4.27285e-03 -2.40457e-03 -6.43447e-04
       O -6.67189e-05  5.31098e-04  2.92282e-04
       H  2.04949e-03 -2.21390e-03  3.50484e-03
       H  3.35589e-03 -8.35490e-03  2.52276e-03
       O -1.39013e-03  8.40507e-04  1.41617e-03
       H -5.40672e-03  1.11880e-03  5.75896e-04
       H  2.06367e-03 -6.96048e-04  1.63700e-03
       O  9.86460e-04 -1.01507e-03 -5.01327e-04
       H  3.62836e-03 -4.07125e-03  4.07000e-03
       H -4.86868e-03  1.42595e-03  9.26338e-05
       O -5.56886e-04  2.39143e-04  8.34604e-04
       H -1.09509e-03  3.36139e-03  9.85945e-04
       H -9.51217e-04  8.43631e-03  2.79107e-04
       O  2.86610e-04 -4.15174e-04  1.39305e-03
       H  6.77677e-04 -2.03147e-03  7.80516e-04
       H -5.81186e-04  2.46843e-04  8.73010e-04
       O  3.56180e-04  9.96570e-04 -8.73445e-04
       H  1.54422e-03 -5.68473e-03 -4.77848e-03
       H -2.56849e-03  2.94111e-03  2.36680e-03
       O  1.80287e-05 -1.39990e-03  9.85721e-04
       H -2.04583e-04  4.26028e-04 -2.57449e-03
       H  1.34055e-03  3.73154e-06  3.25765e-03
       O -4.63107e-04  4.52382e-04  7.83505e-04
       H  5.88212e-04 -2.36778e-03 -6.48143e-04
       H  4.12687e-03 -2.19065e-03 -4.79642e-03
       O  5.62725e-04 -9.66519e-04 -1.65265e-04
       H  5.67565e-03 -6.15199e-03  7.88301e-04
       H  3.77683e-03  6.62649e-03 -2.79351e-03
       O  1.94446e-04  5.67857e-04  3.21166e-04
       H -4.59701e-04 -3.50179e-04  5.75533e-03
       H -5.91057e-03 -4.51114e-03 -4.90624e-03
       O -2.76907e-04 -1.47254e-03 -2.59419e-05
       H -3.43404e-03 -3.35535e-03  1.40109e-03
       H -3.55418e-03 -2.53642e-03  1.34874e-03
       O  2.01334e-04 -4.92096e-04  1.05230e-03
       H  2.78417e-03 -8.72925e-03  2.95715e-03
       H -2.54100e-04 -3.35337e-03 -6.12026e-04
       O -7.98472e-04  3.02292e-04 -6.37183e-04
       H  2.58143e-03 -1.28447e-03  2.92928e-03
       H -2.05634e-03  4.55785e-04 -1.39923e-03
       O  7.04565e-04 -6.61732e-04  6.32974e-04
       H -1.86066e-03  5.38843e-03 -2.41591e-03
       H  3.22875e-03  1.22823e-03  3.12725e-04
192
# CELL(abcABC):   16.99620    29.43815    27.67315    90.00000    90.00000    90.00000  Step:          20  Bead:      15 velocities{atomic_unit}  cell{atomic_unit}
       O  2.52976e-05 -1.38471e-03 -1.97373e-05
       H -3.45738e-03  6.16037e-03  8.77915e-05
       H -1.57942e-03 -8.97724e-04 -5.02388e-03
       O -9.42661e-04  5.41612e-04 -4.30733e-05
       H  8.09863e-03  1.50440e-03 -1.55849e-03
       H -2.73168e-03 -1.69778e-04  2.40024e-04
       O  1.16540e-03  3.05948e-04 -2.80291e-04
       H -6.22531e-03  7.00563e-03 -2.59941e-04
       H  3.07928e-03 -2.01781e-03 -4.74317e-03
       O  3.40537e-04  7.96978e-04 -8.81353e-04
       H  5.23109e-04  3.38977e-03 -1.53558e-03
       H -2.23044e-03  8.51235e-04 -3.88044e-03
       O  1.04500e-03  4.16698e-05  1.72574e-03
       H -1.47709e-04  4.62064e-03  1.79583e-03
       H -4.51695e-03 -1.99684e-03  5.75301e-03
       O -4.09061e-04 -3.87904e-04 -1.61819e-03
       H -1.59736e-03 -3.99461e-04  7.82956e-04
       H  3.06121e-03 -4.04595e-03  3.63489e-03
       O  8.86213e-04 -4.89029e-04 -1.77632e-04
       H  4.73680e-03 -3.57253e-03  2.09455e-03
       H -4.11644e-03  6.85483e-04  6.80410e-03
       O -6.96938e-04  4.36317e-06 -1.47361e-03
       H -2.73923e-03  4.84693e-03  2.40457e-03
       H  8.66535e-04  8.16458e-03  2.94396e-03
       O -2.07193e-04  4.56959e-04 -5.20611e-04
       H -2.70488e-03 -2.21076e-03 -6.89086e-04
       H -4.14289e-03  9.59475e-03 -1.62954e-03
       O  6.02678e-05 -6.82641e-05  3.51564e-04
       H -3.27859e-03  1.89983e-03  4.96505e-03
       H  2.70103e-04 -1.05690e-02  1.13489e-03
       O  4.98309e-04  1.48099e-03 -3.41514e-04
       H -1.37533e-03  1.47087e-03  4.29068e-03
       H  3.74693e-03  2.12063e-03 -1.97995e-03
       O -1.48888e-03 -1.99372e-04  1.47410e-04
       H  4.46883e-03 -2.26259e-03 -2.94879e-03
       H -5.66096e-03  4.44873e-03 -6.79765e-04
       O  1.72600e-03 -2.50753e-04  1.16580e-03
       H  1.17630e-03  2.32099e-03  2.96532e-03
       H  1.29336e-03 -8.85785e-04  4.52667e-03
       O  1.58620e-03 -6.26163e-04  1.17950e-03
       H -5.47361e-04 -7.31823e-04  3.63101e-03
       H -7.24175e-03 -1.49875e-03  3.74677e-03
       O -1.82011e-03  1.28741e-05 -5.13877e-04
       H -3.16910e-03  9.19178e-04 -2.43220e-03
       H -1.50061e-03 -3.37764e-03 -1.55612e-03
       O  4.21390e-04  1.12453e-03  1.66905e-04
       H  1.45524e-03  8.25895e-03  4.23068e-03
       H -1.92305e-03 -3.53850e-03 -5.04003e-03
       O  1.03139e-03 -1.12086e-03 -1.61312e-03
       H -1.57249e-03 -3.64939e-03  2.50392e-03
       H  1.95062e-03 -2.30802e-03 -3.85386e-04
       O -3.05808e-03  6.70126e-05 -6.83505e-04
       H -6.68977e-05 -3.25796e-03 -2.07341e-03
       H  1.65345e-03  5.67870e-03  1.28384e-03
       O  4.67202e-04 -9.14950e-04  4.50777e-04
       H -3.44089e-03  2.52863e-03  5.63453e-03
       H -4.13257e-03  2.78698e-03 -7.47196e-03
       O -4.60543e-04  1.22086e-04 -1.01442e-05
       H  3.71027e-03  2.72410e-03  2.81473e-04
       H -6.54117e-04 -1.00263e-03 -3.15314e-04
       O  2.59410e-04  1.01917e-03  1.29057e-04
       H -7.72480e-04  2.17531e-03  1.06539e-03
       H  3.54616e-03  4.66889e-03 -2.73824e-03
       O -1.03650e-03  1.15570e-03 -4.52569e-04
       H  2.76925e-03  1.51210e-03 -4.46305e-03
       H  1.38462e-03  3.18946e-03  4.89299e-03
       O -3.95203e-04  9.49672e-04 -1.00297e-03
       H -3.07853e-03  2.19734e-03  9.34777e-04
       H -5.16998e-03  1.77346e-03 -4.42154e-04
       O  8.67756e-04 -2.88068e-04 -8.61394e-04
       H  6.87628e-04 -1.32702e-03  1.59990e-03
       H -5.57582e-03  1.41412e-03  1.01983e-03
       O  1.30092e-03  1.56065e-03 -2.39568e-04
       H  2.56638e-03  6.08718e-04 -1.58300e-04
       H -1.74303e-03  4.99358e-04  8.97287e-03
       O -1.00870e-03 -8.20563e-05  1.87340e-05
       H  4.40626e-03  3.86194e-03 -6.30046e-04
       H -4.62141e-03  3.83368e-03  1.25566e-03
       O  3.01896e-05  8.03553e-04  2.15086e-03
       H -3.32179e-03 -6.18588e-03 -2.18530e-04
       H  3.32735e-04 -3.70381e-04 -1.53971e-03
       O -5.04404e-04 -1.91633e-03 -7.83021e-04
       H -4.39961e-03 -6.15217e-03  4.85967e-03
       H -2.05292e-03 -9.97720e-04  4.50833e-04
       O -2.90108e-05 -2.57655e-04  5.72034e-05
       H  5.78439e-03  4.73916e-03  6.25130e-05
       H -7.90521e-04  1.04470e-03  2.85039e-03
       O  4.35052e-04 -8.69721e-04 -1.51465e-03
       H -6.67737e-04 -7.62623e-05  1.80743e-03
       H -2.08365e-03  1.18114e-03  4.73879e-04
       O  8.91715e-04 -4.25922e-05  1.52366e-03
       H -3.46940e-03  1.97215e-03  2.46005e-03
       H  3.47960e-03  3.43567e-03  1.23700e-03
       O  1.68785e-03 -2.44687e-03 -5.45351e-04
       H  3.65872e-03  3.33925e-03  7.21833e-04
       H -4.29988e-03 -1.41745e-03  1.32719e-03
       O  6.65535e-04  9.71980e-04  6.42588e-04
       H -4.16430e-03 -5.36455e-04 -1.11073e-03
       H  2.52118e-03 -2.08033e-04  3.14673e-03
       O -7.42927e-04 -2.70403e-04  1.05235e-03
       H -9.89308e-04  4.39615e-03 -1.29159e-03
       H  5.19992e-03 -5.93512e-03 -1.44373e-03
       O  1.20139e-03  2.32614e-04  1.83558e-03
       H -1.77570e-03 -1.54630e-03 -5.93449e-03
       H  4.68116e-04 -2.30461e-04  3.02794e-04
       O -3.69304e-04  4.85081e-04  7.65600e-05
       H  4.52967e-03 -2.61873e-04  2.97417e-03
       H -1.60129e-03  4.12457e-03 -4.75061e-03
       O  2.15261e-03 -1.01508e-03  2.51940e-04
       H  8.54949e-04 -4.75764e-03 -1.22844e-03
       H  3.37778e-03  6.70280e-03  6.22746e-03
       O  1.18647e-03 -9.98439e-04 -3.97133e-04
       H  2.91628e-03  6.61582e-04 -5.78243e-03
       H  2.60185e-03  1.29922e-03 -6.44976e-03
       O  1.49082e-03 -4.50297e-04 -9.02280e-05
       H  2.03032e-03 -1.54247e-03 -5.70069e-03
       H  7.86927e-04  4.00058e-04 -6.37019e-03
       O -1.89256e-04 -1.53663e-03 -1.01668e-03
       H -6.73620e-04  1.22103e-03 -6.05118e-04
       H  3.30266e-05  2.97728e-04 -2.87504e-03
       O -1.92382e-03 -1.79697e-04 -1.78945e-04
       H  9.63624e-04 -2.14043e-03 -1.50664e-03
       H -5.53104e-03  3.75614e-03  9.38201e-04
       O -2.14253e-04  7.54989e-04  2.17731e-05
       H  1.01564e-03  2.26423e-03  3.27850e-03
       H  2.50139e-03  3.85726e-03 -1.73291e-03
       O  1.16909e-03  1.39957e-03 -9.71226e-04
       H  1.22734e-03 -1.63257e-03  6.85467e-05
       H -2.42372e-03 -4.10911e-03 -3.50121e-03
       O -7.95561e-04  7.25627e-04 -2.38257e-03
       H -6.37259e-05  4.83097e-03 -5.68780e-03
       H  4.05865e-03  3.48314e-03 -7.11757e-03
       O  1.21685e-03  2.25497e-04  7.79282e-04
       H -3.94895e-04 -2.83361e-03 -1.06513e-03
       H  5.19266e-03 -3.18607e-03 -7.89577e-03
       O  7.53842e-04  8.20291e-04 -1.34994e-03
       H  1.53223e-03 -2.37927e-03 -4.00037e-03
       H  4.47103e-03 -1.26226e-03 -2.97041e-03
       O -5.79603e-05 -8.84948e-04  1.02606e-03
       H -4.95709e-03  6.06663e-03 -5.50686e-03
       H  7.46519e-03 -1.67246e-03  1.58304e-03
       O  1.00700e-04 -5.12045e-04 -5.63206e-04
       H -4.52686e-03  4.93758e-03 -1.25076e-03
       H  1.92482e-03  3.32738e-04 -5.19478e-03
       O -6.47305e-04 -6.46789e-04  1.51416e-03
       H  1.67046e-03  8.04553e-03 -2.77705e-03
       H  2.42288e-03  5.98090e-04  7.23732e-04
       O  1.93651e-03  3.62777e-05  8.20011e-04
       H  4.12070e-03  2.12246e-04 -2.70266e-03
       H  6.40657e-04 -1.83458e-03 -1.15565e-03
       O  5.97038e-04 -1.57672e-04  1.04596e-04
       H  2.70394e-03 -1.23575e-03  9.01243e-03
       H -3.24323e-03  1.39503e-04 -5.85562e-03
       O  1.47196e-03  2.65846e-03  1.03836e-03
       H -1.29858e-03 -1.31278e-03 -7.45979e-03
       H  1.52814e-03  8.43921e-04 -1.21344e-03
       O  2.14870e-04  7.16885e-04  2.80750e-04
       H -2.08624e-03 -1.25061e-03  1.94980e-03
       H  3.41507e-03 -1.02224e-03 -1.57320e-03
       O  6.44717e-04  3.56800e-04 -1.54834e-03
       H  1.20494e-03  1.27846e-03 -2.19755e-03
       H  3.01226e-03 -5.47373e-04 -2.40649e-03
       O  4.43165e-04  5.84792e-04 -9.03136e-04
       H -3.76720e-03 -1.24077e-03  3.48333e-03
       H -1.83914e-03 -1.31980e-03  2.33776e-03
       O -1.69214e-03 -3.21527e-04  8.91597e-04
       H -9.77864e-04  4.73497e-03 -5.17923e-03
       H -1.72781e-04  3.94708e-04  1.17030e-03
       O -1.71444e-03  4.70270e-05 -7.55211e-04
       H -2.02477e-03 -3.99797e-03 -3.55850e-03
       H  1.89928e-03  3.44061e-04 -2.03430e-03
       O -6.77381e-04 -1.52219e-03 -2.31296e-04
       H -2.87144e-03 -2.27792e-03 -3.90933e-04
       H -1.97998e-03 -4.86544e-03 -6.43445e-04
       O  6.44695e-05  1.11775e-03  6.97818e-04
       H -4.07991e-03  3.76129e-03  6.54052e-04
       H -1.98633e-03 -3.49051e-03 -5.59025e-03
       O -8.13641e-04 -1.95504e-03  6.66396e-04
       H  1.74335e-03  1.85229e-03  3.44900e-03
       H -1.11217e-03 -7.64266e-03  9.74224e-05
       O  4.01266e-04 -8.29424e-04  1.00925e-03
       H -1.76826e-04 -1.50128e-03 -1.47801e-03
       H  5.65556e-03  1.88976e-03  4.99049e-03
       O -1.86670e-03  1.20167e-03 -7.52278e-04
       H  1.37009e-03 -1.48361e-03 -1.72467e-03
       H  1.94173e-03 -3.56896e-04 -2.66150e-03
       O -3.57070e-04 -1.19533e-04 -7.34998e-04
       H -3.39835e-03  1.89234e-03 -5.56019e-03
       H -5.23060e-03  4.74755e-03  2.86725e-03
       O  4.31044e-04 -6.93832e-04 -1.69993e-03
       H  1.00107e-02  4.90530e-03 -3.54493e-03
       H -7.91386e-03 -6.41209e-03  4.26183e-04
192
# CELL(abcABC):   16.99620    29.43815    27.67315    90.00000    90.00000    90.00000  Step:          30  Bead:      15 velocities{atomic_unit}  cell{atomic_unit}
       O  9.96256e-04 -1.58745e-03 -1.54685e-04
       H -2.04604e-03  1.60809e-03 -1.21274e-03
       H  1.60760e-04  4.41112e-03  1.56380e-03
       O -3.08222e-04  4.59512e-04 -3.06193e-04
       H -8.87607e-04  5.03095e-04  1.49693e-03
       H -5.73613e-04  2.79831e-03  4.09527e-04
       O -9.82363e-04 -4.92536e-05  5.40572e-04
       H  4.47606e-04 -3.36951e-03 -2.42982e-03
       H -3.23351e-03  2.53887e-04 -3.45032e-04
       O -5.01520e-04  3.37366e-04  1.81139e-04
       H  5.30553e-03 -3.87973e-03  8.30482e-04
       H -8.42692e-03  6.78185e-03  5.48613e-05
       O -7.69700e-04 -1.90792e-03  4.80107e-04
       H -2.32427e-03  1.77269e-03 -1.04150e-03
       H  1.12743e-03 -2.90677e-03 -6.64195e-04
       O  1.24856e-03 -1.37923e-05 -3.19884e-04
       H -9.80476e-04  6.55859e-05 -8.44896e-04
       H  4.14525e-03  3.21893e-03 -1.82033e-03
       O  4.35078e-04  9.52264e-04  1.74511e-03
       H  2.14654e-03 -9.97893e-04 -1.81542e-03
       H  6.09638e-03  1.92623e-03  1.75409e-03
       O -9.53564e-05  2.61731e-03 -6.20360e-04
       H -7.30696e-03 -3.01919e-03 -2.18883e-03
       H  1.63512e-03 -3.57444e-03  2.02860e-03
       O -1.58116e-04 -2.33015e-04  6.69470e-04
       H -1.71038e-03  1.77178e-03  5.51307e-03
       H  6.47200e-03  1.28127e-03 -7.15591e-04
       O  1.05327e-03  3.40647e-04  1.88720e-03
       H -1.30593e-04 -3.94460e-03  6.61430e-04
       H -5.23743e-04 -1.44758e-03  2.45817e-03
       O  2.94466e-04 -6.45064e-05 -6.28546e-04
       H  2.24428e-03 -1.77022e-03 -1.52841e-04
       H  9.97970e-04 -2.43366e-04 -1.25871e-04
       O -4.05135e-04  8.70874e-04 -9.95198e-05
       H  1.63670e-03  1.46386e-04 -8.45311e-04