192
# CELL(abcABC):   16.99620    29.43815    27.67315    90.00000    90.00000    90.00000  Step:           0  Bead:      29 velocities{atomic_unit}  cell{atomic_unit}
       O -5.81117e-06  1.60473e-03  8.78560e-04
       H -4.25277e-04  7.23500e-04  3.90892e-03
       H -3.46088e-03  1.63654e-03  1.60191e-03
       O  1.63644e-03  1.64189e-04 -3.89477e-04
       H  4.40978e-03 -8.02817e-03  3.79807e-04
       H -6.66738e-04 -9.58729e-04  2.27557e-03
       O -2.37764e-04 -7.34269e-04  7.75539e-04
       H  7.76465e-03  5.16780e-03 -2.22201e-03
       H  4.47180e-03  5.16295e-03  3.01256e-03
       O -3.13450e-03  1.13068e-04 -4.81357e-05
       H  2.63931e-03  2.69307e-03  2.18930e-04
       H -9.97843e-04 -2.90833e-03  3.23965e-03
       O -8.24348e-04  3.37056e-04  8.68799e-04
       H -3.67742e-03  1.38973e-03 -5.30363e-04
       H  1.60273e-03 -5.67395e-03 -9.12632e-03
       O -9.91226e-05  9.89305e-04  6.13533e-04
       H  3.25075e-03 -5.46286e-04  1.78059e-03
       H -7.39728e-04 -4.92216e-03 -4.13319e-03
       O -4.45643e-04 -2.47062e-04  3.43353e-04
       H  2.90287e-03 -3.71433e-03 -1.94305e-03
       H  2.78462e-03  1.79722e-03 -1.27328e-03
       O -2.63930e-03  7.45402e-04 -6.81939e-04
       H -5.76100e-04 -1.18062e-03  5.89861e-03
       H -3.63696e-03  1.43609e-03  5.33133e-03
       O  2.44736e-04  1.88493e-03 -1.64891e-03
       H -2.24633e-03 -1.20792e-03  2.08051e-03
       H  2.83670e-03 -1.58176e-04  8.47628e-03
       O  9.33225e-04 -5.87960e-04  9.02308e-04
       H -1.57733e-03 -1.16352e-03 -2.58924e-03
       H  6.70981e-04  7.03144e-04 -7.32831e-04
       O -3.51484e-05  1.00685e-03 -2.67577e-04
       H -1.14458e-03 -2.37475e-03  3.06286e-03
       H -6.22322e-03 -5.03436e-03  5.14169e-03
       O -1.91439e-03 -1.11382e-03  4.24795e-04
       H  3.65021e-03  1.34694e-03  5.09154e-03
       H -3.36014e-03 -2.09823e-03  5.21320e-03
       O  9.87777e-04  3.49463e-05 -1.77389e-04
       H -2.52702e-03  2.20853e-03 -2.00530e-03
       H  2.38326e-03 -2.00621e-03  8.29460e-03
       O  2.25034e-03  1.02635e-03  1.26027e-03
       H -3.98934e-03  1.76194e-03  8.19038e-03
       H  3.17204e-03 -2.97203e-04 -1.93214e-03
       O  5.12227e-04  6.81969e-04 -3.74637e-04
       H -1.08674e-02  9.52732e-04 -4.12782e-03
       H -3.88718e-03 -1.86445e-03  7.94804e-03
       O -4.94567e-04 -7.75416e-04  9.29335e-04
       H  2.65516e-03 -1.67105e-03 -4.33595e-03
       H  2.81609e-03  2.09426e-03 -1.37016e-03
       O -3.20879e-04 -9.45144e-04  4.12327e-04
       H -1.44443e-03 -3.04518e-03  6.67285e-03
       H  7.13048e-04 -2.04732e-04  3.18369e-03
       O  1.30155e-03  1.68887e-04 -2.26322e-03
       H -4.64682e-03 -2.83897e-03  6.22962e-03
       H -5.65509e-03 -4.82203e-03 -1.27478e-04
       O  5.81465e-04  3.41245e-04  4.92643e-04
       H -6.00085e-03  3.88357e-03 -5.98021e-04
       H  2.91799e-04  3.76846e-03 -3.12971e-03
       O -2.45169e-03 -2.64947e-04  2.21494e-04
       H -5.54309e-04 -7.75987e-04 -2.92352e-03
       H  1.68201e-03 -1.51179e-03  9.69346e-05
       O -1.95290e-03 -9.36258e-04  1.82358e-03
       H  7.64202e-04 -2.11332e-03  5.56924e-03
       H  5.51328e-04 -2.65143e-03 -3.75929e-03
       O -3.06552e-03 -9.69269e-04 -1.49270e-03
       H  1.68922e-03  1.74470e-04 -4.33978e-03
       H -4.12837e-03 -2.45182e-03  3.70178e-03
       O  1.21878e-03  5.89521e-04  1.15554e-03
       H -2.11973e-03  2.58441e-03 -1.78003e-04
       H  4.49154e-03  8.71825e-04 -2.16978e-04
       O -1.60349e-03  1.36495e-03 -1.20249e-04
       H -1.15687e-03 -2.01410e-03  6.09088e-05
       H -3.04722e-04  2.50066e-03 -3.56081e-03
       O -1.30590e-03 -5.31240e-04 -3.27831e-04
       H  1.01073e-03  1.96652e-03  5.35201e-03
       H -5.75588e-03 -1.49943e-03 -1.89621e-03
       O -1.22758e-03 -1.88617e-04 -9.92100e-05
       H  4.35374e-03 -1.44019e-03 -1.88264e-03
       H  2.45083e-03  1.81111e-05  4.60850e-03
       O -3.07543e-04 -4.91487e-04 -1.68825e-04
       H -2.06393e-03 -4.17275e-03  5.23986e-03
       H -1.60391e-03 -4.57798e-03  6.71478e-03
       O -5.95513e-05  5.48105e-04 -1.47343e-05
       H  1.53064e-03  6.54677e-04 -1.32653e-03
       H -4.03296e-03  3.02698e-03 -3.64050e-03
       O  5.19461e-04  3.48889e-04 -7.89184e-04
       H -2.26385e-04 -1.52540e-03 -5.12100e-03
       H -1.06637e-03 -9.16474e-05 -2.96324e-03
       O -3.17732e-04 -8.75326e-05 -4.91381e-04
       H  2.97621e-03 -1.27392e-03 -2.87307e-04
       H  5.37102e-05 -1.22165e-03 -4.49766e-03
       O -1.06552e-03 -3.10320e-04 -8.00236e-04
       H  2.20130e-05 -3.14014e-03 -3.52007e-03
       H  1.39310e-05 -2.90465e-03  2.01273e-03
       O  3.41872e-04  1.31993e-04 -6.73778e-04
       H -9.01017e-04  5.85025e-03  3.73601e-04
       H  9.28778e-04 -4.82553e-03 -2.99865e-03
       O  1.27863e-03  1.10878e-03 -3.50370e-04
       H  2.16333e-03 -1.51902e-04 -3.41419e-03
       H -9.70651e-04 -6.37371e-03  2.82702e-03
       O  1.32640e-04 -3.22996e-04 -9.29991e-05
       H  6.59996e-03  1.20891e-03  1.01165e-03
       H  1.50315e-04  3.92141e-03 -4.52316e-03
       O -2.80209e-04 -2.09626e-03 -6.73949e-04
       H -4.81253e-03 -1.33700e-03 -2.48674e-03
       H  6.20217e-03 -1.39329e-03  2.80682e-03
       O -1.10229e-03  8.73617e-05 -8.65135e-04
       H -7.58109e-03 -3.53333e-03  7.55288e-03
       H -3.67673e-03  7.84913e-03 -3.57630e-03
       O -2.72040e-04 -8.42510e-04  5.70525e-04
       H  6.56121e-03 -2.12087e-03 -2.02160e-03
       H -1.33194e-03 -5.65713e-03 -1.66454e-03
       O  7.39823e-05 -4.66523e-04 -2.65751e-04
       H -4.42506e-03  5.83706e-03 -2.40035e-03
       H  2.27535e-04  4.58377e-04 -3.17740e-04
       O -7.08347e-04  5.56234e-04 -1.49276e-04
       H  1.08633e-03 -2.32496e-03 -3.11005e-03
       H  6.20535e-04  8.39236e-04 -1.76643e-03
       O  2.02793e-04  4.61542e-04  1.73761e-04
       H -3.22798e-03  1.04529e-03  1.05479e-02
       H  4.57244e-03  1.42784e-03  6.22171e-03
       O  1.08609e-03  2.24454e-04 -3.66398e-04
       H -1.13498e-03  6.23185e-03  6.47402e-04
       H -6.83754e-04  2.31137e-03 -7.10887e-05
       O -3.65120e-04  1.34734e-03 -5.80575e-04
       H -1.21827e-03 -4.50109e-03 -8.26944e-04
       H  3.02060e-03 -1.01262e-02  2.40430e-03
       O  1.04717e-03  8.66293e-05  4.44202e-04
       H  5.39931e-04  2.25842e-03 -1.57334e-03
       H -7.12082e-04  1.24499e-03 -3.44300e-03
       O  9.63910e-04 -2.02710e-03  2.05118e-03
       H -8.78329e-05  3.36145e-03  2.51987e-03
       H -1.94579e-03 -5.47850e-03 -3.78405e-03
       O  6.52624e-04 -1.91865e-03  1.74389e-04
       H  6.41002e-03  2.08409e-03 -2.76389e-03
       H -4.89565e-04 -5.00410e-03 -1.19609e-03
       O -6.63600e-04  3.09336e-04  7.06140e-04
       H -1.65805e-03 -4.57376e-03 -3.80509e-03
       H -3.93950e-03 -2.88170e-03 -1.03021e-04
       O -1.15333e-03 -8.63601e-04 -7.24016e-04
       H -5.72203e-03 -5.77114e-03 -3.47785e-03
       H -3.16945e-03 -7.74008e-04  5.68393e-04
       O -7.73710e-04  1.14459e-04 -1.77595e-04
       H  1.02348e-03 -2.04690e-03  2.51086e-03
       H -1.00771e-04  2.51825e-03 -1.59664e-03
       O -1.40925e-03  9.89872e-04 -5.48271e-04
       H  3.40993e-03  3.02840e-03 -1.30802e-03
       H  9.67279e-04  2.64831e-03  1.08601e-03
       O -2.21568e-04 -8.99142e-04 -4.57206e-05
       H -1.11965e-03 -5.86077e-04 -6.92528e-03
       H  7.07013e-03  9.23236e-03 -9.89651e-04
       O -4.10798e-04  6.04965e-06  1.84305e-04
       H  4.73953e-03  1.76404e-03 -2.19550e-04
       H  9.40289e-04 -5.54343e-03  1.20998e-04
       O  1.72060e-03 -6.92696e-05  1.42123e-04
       H -2.03440e-03 -3.80866e-03  7.60759e-04
       H -1.17204e-03 -4.66508e-03 -2.33681e-03
       O -8.34265e-04 -6.55233e-04  1.11981e-03
       H  1.97071e-03  1.01510e-03  3.06604e-03
       H  1.06751e-03  7.89618e-03  5.85999e-03
       O -3.69596e-04  1.72493e-03  9.39351e-04
       H  3.53928e-03 -4.21207e-03 -1.97749e-03
       H  3.94349e-03 -1.05487e-03 -2.74590e-03
       O -6.73619e-04 -7.74563e-04 -4.28784e-04
       H  1.48304e-03  1.02624e-03 -2.89758e-03
       H -3.23299e-03  6.59309e-03 -2.57603e-03
       O  1.31364e-03 -9.96484e-04 -2.07262e-04
       H -6.78698e-04  4.21731e-04 -1.78321e-03
       H -8.42545e-04  1.86249e-03 -1.61754e-03
       O  4.68094e-04  3.89204e-04  1.95866e-03
       H  4.31190e-03 -6.36022e-03  4.41645e-04
       H  1.39843e-03  8.86188e-04  2.30159e-04
       O  7.55395e-04 -4.67327e-04  4.88965e-04
       H -1.05469e-03 -7.36342e-04  1.14201e-03
       H  8.06991e-03 -3.23454e-03  1.36106e-03
       O -9.04387e-04  2.26159e-03  2.84227e-04
       H -2.90182e-03  2.44757e-03 -2.28247e-03
       H -6.67410e-03  5.30408e-03  1.19666e-04
       O -1.75522e-03  5.76941e-04  3.91241e-04
       H -3.23033e-03 -2.53839e-04  3.81482e-03
       H  1.36521e-03 -1.93172e-03  5.02841e-03
       O  2.59818e-03 -6.11610e-04  6.65350e-04
       H -1.27651e-03  2.97022e-04  4.53507e-03
       H  1.20179e-04 -3.53719e-03  3.51259e-05
       O  7.74298e-04  5.79718e-04  2.52135e-04
       H -4.59147e-03  2.12855e-03 -1.65281e-04
       H -8.09450e-03 -1.40717e-03 -3.98312e-04
       O -1.18112e-03  3.53385e-04  1.21420e-03
       H -5.30086e-03  4.11499e-03 -2.93536e-03
       H  5.85964e-03  2.90989e-03 -1.02266e-03
       O  1.37944e-03  2.49248e-03  1.55798e-03
       H  4.99323e-03  6.60562e-04  3.23501e-03
       H  1.87960e-04 -4.78240e-03 -3.58498e-03
192
# CELL(abcABC):   16.99620    29.43815    27.67315    90.00000    90.00000    90.00000  Step:          10  Bead:      29 velocities{atomic_unit}  cell{atomic_unit}
       O  1.16236e-03  6.22996e-04 -1.17556e-03
       H  5.15221e-03 -4.35563e-03  1.13168e-03
       H  1.64517e-03 -2.34615e-03 -6.95669e-03
       O  9.93438e-05  6.61542e-04 -7.01547e-04
       H  5.07762e-04  3.70566e-03  1.20727e-03
       H -7.34663e-04 -1.11757e-03 -1.71679e-03
       O  6.01941e-04  5.62782e-04 -1.94143e-03
       H  1.54007e-03 -3.47470e-04  5.33728e-03
       H -3.88973e-03  5.49521e-03  2.04578e-03
       O  1.17375e-03 -5.64444e-04  1.34372e-03
       H  4.76221e-04 -1.62821e-03  4.66720e-03
       H  1.86443e-03  4.73024e-03 -6.31577e-03
       O  5.36862e-04  1.01672e-04  1.40406e-04
       H -4.30290e-04  3.93217e-03  2.79359e-03
       H  1.84226e-03  1.44825e-03 -2.62030e-03
       O -1.22015e-03 -1.62110e-03 -8.15437e-04
       H -3.59025e-03  9.54949e-03 -1.87653e-03
       H -2.04652e-03 -2.30247e-03 -4.26986e-03
       O -5.60940e-04 -2.66819e-04 -7.27926e-04
       H  3.91639e-03 -5.73158e-03  3.04321e-03
       H -5.24389e-03 -3.15476e-03  8.88137e-03
       O -7.54296e-04 -3.99201e-04  1.46689e-04
       H -5.82131e-03  1.86147e-03 -2.22364e-03
       H  3.60051e-03  4.41654e-03 -2.40424e-03
       O -3.74715e-04 -4.77313e-05 -1.57102e-03
       H -3.20884e-03  4.93961e-03 -4.81723e-03
       H -8.82027e-04 -2.51586e-03 -3.29959e-03
       O -1.29632e-03  4.45344e-04  7.00179e-04
       H -1.40150e-03  8.02342e-05  5.98576e-03
       H  1.88821e-03 -1.27625e-03  1.18408e-03
       O  8.56102e-04  1.27780e-03 -3.51441e-04
       H -3.37586e-03  4.41320e-03 -1.99615e-03
       H -4.99532e-04  1.18996e-03  7.17849e-04
       O -2.70748e-05 -2.05016e-04 -2.16697e-04
       H -3.50088e-03 -5.31742e-03  1.56474e-03
       H -3.18593e-05  1.30085e-03 -4.38465e-03
       O -1.08479e-05  9.73730e-04 -7.06623e-04
       H -3.98994e-03 -4.55242e-04 -2.83707e-03
       H -2.97473e-04 -8.12558e-03 -1.10782e-03
       O  9.76677e-04 -6.09913e-04 -1.99945e-03
       H  4.26787e-04  7.38936e-03  8.35965e-04
       H -1.10705e-03  5.97094e-03 -6.20867e-03
       O  1.23337e-03 -1.38431e-03  1.14031e-03
       H  1.96586e-04 -4.77884e-03  6.90992e-04
       H -1.03069e-03  2.11196e-03 -6.91682e-03
       O  2.51564e-04  4.17560e-04  8.05275e-05
       H  6.11985e-03  3.52908e-03 -4.46787e-03
       H -5.57903e-03 -4.05692e-03  4.55971e-03
       O -1.23623e-03 -4.52768e-04 -8.61757e-04
       H -9.70986e-04  1.30034e-03  1.23692e-04
       H -1.22073e-04 -1.12733e-03 -1.78271e-03
       O -1.11498e-03  3.50761e-05  1.63797e-03
       H  6.16283e-03  1.53380e-03 -2.70648e-03
       H  3.30773e-03 -1.13743e-03 -9.92066e-04
       O  2.06698e-04 -1.89247e-03 -6.05128e-04
       H -3.03249e-03  1.47699e-03  5.20175e-04
       H  3.10858e-03 -2.95307e-03  2.71855e-03
       O -6.50843e-04 -7.59757e-05 -3.23683e-03
       H  8.27968e-03  1.12867e-03  1.93333e-03
       H -4.33096e-03 -3.91158e-04 -6.65507e-03
       O  7.25649e-04  1.02004e-03  6.70940e-04
       H  4.41974e-03  4.47066e-03  3.68083e-03
       H -1.41298e-03 -8.22757e-05 -7.10691e-04
       O -1.70169e-04  1.68709e-03  6.17292e-04
       H -2.95614e-03 -4.41666e-03 -2.21847e-03
       H -1.33270e-03 -1.89059e-03  2.29800e-03
       O -5.70277e-04 -5.80550e-04 -2.33201e-04
       H -9.98195e-03 -2.15458e-03  4.50766e-03
       H -1.82971e-03 -5.21715e-03 -2.78837e-03
       O -1.05192e-03  2.15936e-03  2.50456e-04
       H -3.07556e-05  4.92949e-03 -2.95829e-03
       H  3.79042e-03  1.64687e-03  3.78995e-03
       O  4.86214e-04  4.31756e-04  7.79323e-04
       H -2.88055e-03 -2.60423e-03  2.51211e-03
       H  3.94437e-04  4.39067e-03 -1.28301e-03
       O  4.13453e-04  7.11932e-04 -2.41667e-04
       H -2.22426e-03 -8.15435e-03 -7.33597e-04
       H  1.34986e-05 -4.62737e-03 -2.56801e-03
       O  1.73274e-04 -1.54477e-04  8.61626e-04
       H -8.14203e-04  2.53372e-04 -1.47680e-03
       H -1.10156e-02  1.57072e-03  3.78343e-03
       O -1.61437e-03 -4.04851e-04  4.54870e-04
       H -2.00936e-03 -6.21205e-03 -6.55240e-04
       H -1.30018e-03  5.91903e-03  3.45079e-03
       O  3.54152e-04  3.54256e-04 -1.32657e-03
       H  3.64927e-04  3.47790e-03  2.08906e-04
       H  2.88421e-03  2.30225e-03 -1.46469e-04
       O -3.01666e-04  1.48545e-03 -6.01078e-04
       H  2.68291e-03  2.97253e-03 -1.11005e-03
       H  8.75043e-04  1.53538e-03 -2.10174e-04
       O  1.88338e-03 -4.57589e-04 -7.78842e-04
       H  1.33798e-03  6.04760e-03  4.85654e-03
       H  6.87615e-03 -2.08514e-03 -8.29705e-04
       O  8.83660e-04  5.98418e-04  6.70670e-04
       H  2.84303e-03 -2.35181e-03  1.45183e-03
       H -1.20980e-03 -3.28922e-03 -4.65470e-03
       O -2.28890e-03  3.32577e-04 -5.62618e-04
       H  2.91533e-03 -2.05030e-03  5.59269e-03
       H  1.83060e-03 -2.30720e-03  3.86374e-03
       O  6.03867e-04 -9.28432e-04  6.89514e-04
       H  7.78906e-03 -2.45442e-03  1.39250e-03
       H -8.53614e-04  4.12146e-03 -1.46704e-03
       O -3.58817e-04 -1.74834e-03  1.80806e-04
       H  1.96112e-03  1.47098e-03  5.87321e-03
       H  3.88444e-03 -3.92131e-03  7.90749e-04
       O -8.84225e-04  1.26795e-04  2.34349e-03
       H -2.53579e-04 -3.62585e-03 -4.84648e-04
       H  5.85179e-03 -2.13357e-03  1.93893e-03
       O -1.04236e-03  3.11521e-04  8.29649e-04
       H -7.84834e-03  4.86826e-03 -7.80780e-03
       H  1.52641e-03  3.69133e-03 -2.74274e-03
       O  1.01551e-03  9.90199e-04  9.24481e-04
       H  8.88132e-04 -6.13610e-03  4.01348e-03
       H  2.22270e-03 -4.66150e-03  4.33589e-03
       O -9.53306e-04  3.43396e-04 -1.34003e-04
       H  5.32312e-03  3.66717e-03  2.07600e-03
       H -1.41595e-03 -3.60951e-03 -6.89790e-03
       O  1.97769e-03  3.71881e-04 -1.06033e-03
       H -2.45991e-04  1.93631e-03  1.93870e-03
       H  8.13256e-04 -8.36498e-04 -4.18668e-03
       O -5.61268e-04  8.05400e-04  1.20959e-03
       H -4.23237e-03  4.56528e-03 -2.70223e-03
       H -2.67099e-03  3.58084e-03 -8.18273e-03
       O -7.85138e-06  1.50275e-03  5.32940e-04
       H  2.61682e-03  8.78328e-04 -5.66244e-05
       H  2.10293e-03  1.17733e-03  2.94001e-03
       O  1.79781e-03 -9.75248e-04  1.90834e-03
       H  1.23702e-03 -2.60886e-03 -8.98394e-04
       H  2.75606e-04  3.40796e-04 -1.53982e-03
       O -1.16190e-03  1.34646e-03  9.54782e-04
       H -1.88020e-03 -2.35207e-03 -2.11283e-03
       H -5.31068e-03 -5.19784e-05 -1.10384e-03
       O -9.79776e-04  6.04208e-04  5.09576e-04
       H -1.08852e-03 -1.52781e-03  3.47576e-04
       H  1.42010e-03  3.95703e-03 -4.77542e-03
       O -4.13128e-04  3.58451e-04 -3.24849e-04
       H -5.58108e-03 -2.56917e-03  4.06230e-04
       H -5.19143e-04  6.31398e-04 -3.52640e-03
       O  3.47635e-04  1.15289e-04 -6.42455e-04
       H  3.76674e-03 -2.57684e-03 -3.82352e-04
       H -2.22212e-03  2.16160e-03  2.71386e-03
       O -7.77777e-05 -1.16910e-03  3.26351e-04
       H  6.26694e-04 -8.63675e-04  2.97143e-03
       H  3.94953e-03  3.76514e-03 -2.24221e-03
       O  1.41812e-03 -3.76312e-04  6.03503e-04
       H -2.04540e-03 -2.33710e-03  2.74362e-03
       H -2.05850e-04  1.34438e-03 -2.69760e-03
       O  1.61392e-03  1.60334e-04  6.34021e-04
       H -5.03240e-03 -3.97172e-03 -3.12113e-03
       H  6.02667e-03  2.75371e-03  2.54681e-04
       O -9.86790e-04  5.29440e-04  5.61943e-04
       H  7.93213e-03  6.14038e-04 -2.87245e-03
       H  1.19729e-03  3.81554e-03 -1.86095e-03
       O -2.20052e-04 -6.50194e-04 -5.47185e-04
       H -1.15885e-03 -7.08678e-04  1.82254e-03
       H  6.17224e-03  3.82705e-03  5.24877e-03
       O -1.59986e-04  9.52131e-04 -6.17166e-04
       H  6.19082e-04 -4.50769e-03 -2.99241e-04
       H  1.69199e-03 -1.46120e-03 -1.32517e-03
       O  4.33024e-05  5.95919e-05  7.30042e-05
       H -2.42792e-04 -1.06119e-03  5.22384e-03
       H  4.34221e-03  1.43292e-04  3.84949e-03
       O -5.02065e-04 -6.95164e-04  4.27587e-04
       H  4.37500e-03  2.62163e-03  3.42225e-03
       H -3.26954e-03 -1.50367e-03 -2.52069e-04
       O -8.89043e-05  1.47622e-04 -8.96777e-04
       H  3.89371e-03  2.61653e-04  6.32352e-04
       H -1.52690e-03 -6.53889e-03  4.19744e-04
       O  5.13551e-04  4.29432e-04 -1.56674e-05
       H -6.87651e-03  2.66420e-03  6.16168e-03
       H -6.15667e-03  3.09359e-03  2.85602e-03
       O  3.16797e-04 -7.26526e-04  1.48249e-03
       H -4.06696e-03 -3.13800e-03  4.56358e-03
       H -3.13410e-03 -7.92194e-03 -1.62643e-03
       O -1.94924e-03  7.89120e-04  4.84178e-05
       H  3.22237e-03  3.22489e-03  1.02171e-02
       H -3.88248e-03 -6.59686e-04  6.52474e-04
       O -1.00450e-03 -3.29628e-04  8.55994e-05
       H -4.29517e-04  6.47065e-03  8.08213e-04
       H -4.10477e-03 -8.02717e-03  6.42541e-04
       O  1.01502e-04  3.36692e-05 -4.41850e-04
       H  2.17751e-03 -3.92169e-03  3.25777e-03
       H  1.41236e-04 -4.78807e-03 -7.45507e-04
       O  1.26292e-03 -3.16473e-04  1.48037e-04
       H -3.51943e-05  1.58855e-03  7.84331e-04
       H  4.01549e-04 -1.69462e-03  3.46371e-03
       O -3.66513e-04 -8.76025e-05 -8.25012e-04
       H -3.03877e-03  5.74303e-03  2.05213e-03
       H  5.57354e-03 -3.98500e-03 -7.03096e-03
       O -1.62363e-03  8.15816e-04 -6.67952e-04
       H -6.65330e-03  4.67455e-03  1.51929e-03
       H -1.82755e-03  1.08157e-03 -2.11939e-03
192
# CELL(abcABC):   16.99620    29.43815    27.67315    90.00000    90.00000    90.00000  Step:          20  Bead:      29 velocities{atomic_unit}  cell{atomic_unit}
       O  1.29863e-03  4.88413e-04 -2.30268e-04
       H -1.74827e-03  6.08105e-04  1.08910e-03
       H -6.38877e-03 -3.22841e-03 -1.70113e-04
       O  1.89135e-03  9.38950e-04 -1.18557e-03
       H -2.00019e-03 -1.30907e-03  2.90448e-03
       H  2.28192e-03 -3.98911e-03 -3.62478e-03
       O -3.69632e-04  3.89575e-04 -9.88478e-04
       H -3.46372e-03  1.50727e-03  1.57204e-03
       H -8.27599e-04  2.96575e-04 -7.18459e-03
       O -2.07632e-03 -2.35622e-04  4.88576e-05
       H -4.96329e-03  3.87360e-04  2.48802e-03
       H  2.18525e-04  2.94511e-03  4.12149e-03
       O -6.03246e-04  5.27266e-04  3.94233e-04
       H  5.34275e-03 -3.23078e-03 -3.30688e-04
       H -3.05003e-03 -2.79659e-03  6.46102e-04
       O -9.66293e-04 -1.34202e-03 -9.27545e-04
       H -4.09902e-03 -7.52917e-03  5.12484e-03
       H -7.89520e-03 -8.54211e-04 -1.57086e-03
       O  1.71380e-03 -1.57684e-04 -1.63909e-04
       H  4.70706e-03 -1.22476e-03  8.78494e-03
       H  5.58939e-03 -4.68073e-03  5.58198e-04
       O  7.04131e-04 -9.15793e-04  8.16983e-04
       H  7.70299e-04 -2.74566e-05 -1.56014e-03
       H  4.98022e-03  3.70885e-03 -1.15526e-04
       O  9.75190e-04  2.48265e-04 -1.04758e-03
       H -2.54902e-03  5.50315e-04  8.99897e-03
       H  1.73296e-03  2.57920e-03 -3.79105e-03
       O  7.03335e-04 -5.42634e-04 -3.78912e-04
       H -3.04601e-03  2.75868e-04 -1.85999e-03
       H -8.89636e-04 -4.92088e-04  8.34348e-04
       O -9.49206e-04  6.19155e-05  2.24223e-03
       H -1.49520e-03 -6.37422e-04  1.90886e-03
       H  5.36089e-03  7.61206e-04 -8.25322e-03
       O  1.18958e-03 -3.56402e-06  1.96431e-03
       H -5.82683e-04 -1.34298e-03 -3.65247e-03
       H -3.93117e-05 -4.66090e-03  4.99763e-04
       O  7.72432e-05 -2.70553e-04  1.59188e-03
       H  3.54151e-03  3.59634e-03  1.34329e-03
       H  2.53102e-03  2.25942e-04  2.02148e-03
       O  1.02234e-04  4.01453e-04  1.14357e-03
       H -4.11047e-03 -2.21917e-03  3.81640e-03
       H -3.11945e-03 -2.52047e-03 -3.25758e-03
       O -5.72338e-04 -5.92014e-04 -3.49566e-04
       H -1.26744e-03  3.44252e-03  1.12188e-03
       H  3.76790e-03  8.42081e-04  4.86649e-03
       O  1.21316e-03  5.55582e-04  5.85359e-04
       H -5.72170e-03  2.28231e-03  9.47274e-05
       H -3.05871e-03  4.03092e-03  6.06326e-03
       O  2.56218e-04 -1.29252e-03  6.80064e-04
       H  1.11665e-04  1.55693e-04  8.81970e-04
       H  5.52742e-03 -3.86503e-03  1.89393e-03
       O  3.51774e-05 -1.46553e-03 -6.56549e-04
       H -9.65608e-04  7.34801e-04 -2.59654e-03
       H  1.98251e-03 -2.40576e-03  8.54599e-04
       O -1.86030e-04  2.43424e-04 -1.70884e-03
       H -4.92101e-04 -3.37713e-03 -1.29348e-03
       H  1.47588e-04  2.06433e-03 -5.44877e-03
       O -8.93969e-04  3.20483e-04 -3.03986e-04
       H  3.84832e-03 -1.82668e-03  4.41854e-03
       H  4.17745e-03 -4.01127e-03  3.48970e-03
       O -7.34691e-04  1.06190e-03  6.51607e-04
       H  4.01575e-03  1.07233e-03 -5.64810e-03
       H -5.85839e-03 -3.21219e-03 -7.69309e-04
       O  4.58988e-04  2.28348e-04 -2.71525e-04
       H  4.19317e-03  1.61097e-03  3.51697e-03
       H  1.33090e-03  1.04839e-03 -1.09072e-03
       O  3.59339e-05  2.03568e-03 -3.80839e-04
       H  1.70758e-04 -7.88702e-05 -1.17958e-03
       H -1.38468e-03  2.86450e-03  4.66205e-04
       O  9.60817e-05 -1.80581e-03  1.18370e-03
       H  1.17876e-03 -2.35199e-03  1.04181e-03
       H  1.12683e-02 -3.66775e-03 -5.22609e-03
       O -7.03889e-04  2.25739e-04  1.35127e-04
       H -3.96643e-04  2.49654e-03 -5.81595e-04
       H -2.92713e-04 -2.03132e-03 -1.05454e-03
       O  9.58646e-04 -7.97436e-04 -1.19121e-04
       H -1.35489e-03  1.18722e-03  1.34954e-03
       H -3.65582e-03 -3.70157e-03  1.02151e-03
       O -6.15783e-04  4.31011e-05  1.70410e-04
       H -4.53056e-03  8.40372e-03  4.77702e-03
       H -7.47647e-04  1.45163e-03 -4.77463e-03
       O  7.12715e-05 -7.08882e-04  3.40241e-04
       H -2.92215e-03  3.51263e-03 -3.23401e-03
       H  6.68476e-04  1.40342e-03  4.26558e-04
       O  5.38722e-04 -1.21591e-03 -5.29480e-04
       H -8.08444e-04 -3.39296e-05  4.40380e-03
       H  8.99500e-03  2.22087e-04  8.78143e-04
       O -8.10535e-04  8.97262e-04  1.17526e-04
       H -4.35363e-03 -2.68902e-05  3.20538e-04
       H  1.11626e-03  1.76285e-03 -1.29182e-03
       O  8.11576e-04  1.43026e-03  1.93168e-03
       H  4.15149e-03  8.53551e-04  1.19808e-03
       H  5.52754e-03 -6.55849e-04  3.19702e-03
       O -7.51243e-04 -3.74821e-04  8.26989e-05
       H  3.39660e-03  1.06487e-02  3.67709e-04
       H -1.69856e-03  8.41431e-04  2.36697e-03
       O  4.90825e-04  5.48899e-04 -3.17619e-04
       H  3.30796e-03  2.55187e-03  8.54961e-03
       H -4.44284e-03  7.88329e-03 -5.37956e-03
       O -3.46350e-04  1.32281e-03  1.05305e-03
       H  4.43709e-03  2.63715e-03 -9.77539e-03
       H  7.04326e-04 -4.20028e-03  3.12061e-03
       O  8.88852e-04 -1.99650e-03  4.17763e-06
       H -3.84903e-03  2.69385e-04 -1.23017e-03
       H  1.48940e-04  1.63899e-04 -2.19686e-03
       O -1.45184e-04 -4.81617e-05  1.53217e-03
       H -4.03831e-03 -6.61173e-04  4.61174e-03
       H -2.82103e-03 -3.90290e-03 -7.31628e-03
       O -2.89435e-04 -6.15221e-04  2.83632e-03
       H  1.79473e-03  5.76056e-04 -1.95625e-03
       H -1.34693e-03  3.69490e-03 -2.53125e-03
       O -4.81002e-04 -4.64986e-04  7.09141e-04
       H -5.36411e-03  6.97032e-03 -1.07637e-03
       H  1.19408e-03  1.33970e-03  3.20259e-04
       O  5.73706e-04 -4.17663e-04  1.95079e-04
       H -8.58191e-04 -2.46141e-03  3.88401e-03
       H -6.81984e-03 -2.54936e-03  1.78782e-04
       O -1.01695e-03 -8.89389e-04 -1.48651e-04
       H -2.73635e-03  1.26710e-03 -5.49172e-03
       H  4.69559e-03  1.18052e-02 -1.56139e-03
       O -2.68377e-04 -2.94572e-04 -6.18007e-04
       H -1.82545e-03  2.91574e-03 -8.20566e-04
       H -4.94944e-03  4.90331e-03  8.52879e-03
       O  1.35967e-04 -5.72349e-04  8.32910e-04
       H  5.75911e-04  1.07866e-03 -2.66280e-03
       H  1.14651e-03  2.42638e-03  2.36945e-03
       O  5.54030e-04  7.40354e-04 -3.52212e-04
       H  1.09624e-04  3.32636e-03  3.92873e-03
       H  5.10837e-03  3.04818e-03  4.18943e-03
       O  1.05662e-04 -2.24337e-03  2.28018e-04
       H  1.93388e-03  2.44683e-03 -2.24553e-03
       H  3.51697e-03 -2.04463e-03 -1.46609e-03
       O  8.31709e-04  5.61565e-04 -1.68025e-03
       H -9.29995e-05  7.94475e-04  2.21626e-03
       H -3.00962e-03  2.45147e-03  2.44902e-03
       O -4.68786e-04 -9.40193e-04  2.35353e-04
       H  2.66569e-03 -3.23221e-03 -4.93969e-03
       H -4.58360e-03  4.80706e-03  5.46415e-03
       O -6.21843e-04  9.76077e-04  2.08680e-03
       H -4.03859e-04  5.69545e-04  2.04892e-03
       H -3.04928e-03  3.20401e-03 -3.19514e-03
       O -1.03898e-03  3.80103e-04 -1.80877e-03
       H -2.80192e-03 -7.56363e-03 -4.04454e-03
       H -4.48675e-03 -1.17013e-03 -1.46561e-03
       O -2.29129e-04 -3.58571e-04  1.49369e-04
       H -6.65437e-03 -4.39821e-03 -2.56918e-03
       H -1.21347e-03 -2.93514e-03  1.06150e-03
       O -2.27930e-04  1.04147e-03  1.73789e-04
       H  2.03774e-03  2.97980e-03  1.00675e-03
       H  1.55744e-03 -6.64523e-03  3.29506e-04
       O -2.24340e-04 -1.02301e-03  4.35302e-04
       H  2.11187e-03 -1.79690e-03 -1.34086e-03
       H -3.81099e-03  1.11404e-03 -5.16632e-03
       O  2.11138e-04  1.26973e-04 -9.58731e-05
       H  6.33954e-04 -5.97005e-03  5.42316e-03
       H  6.13963e-04 -1.70210e-03 -2.69454e-03
       O -1.34349e-03  2.26968e-04  5.14060e-04
       H  3.51232e-03  1.54953e-03 -2.65003e-04
       H -2.73337e-03 -7.27825e-03 -6.49505e-04
       O  3.41290e-04 -4.06942e-04 -9.84639e-04
       H  1.98057e-03 -7.04980e-03  5.60919e-03
       H  2.72788e-03 -2.24893e-05 -4.13117e-03
       O -4.43000e-04 -1.82645e-03 -9.90653e-04
       H  4.41736e-04  4.49633e-04  5.78492e-03
       H  2.40470e-03 -5.10625e-04 -3.85863e-03
       O -5.38606e-05  1.64441e-04 -1.34159e-03
       H  1.21701e-03 -4.89151e-03  1.51805e-03
       H -6.07415e-03 -4.37177e-03 -3.25363e-03
       O  9.89683e-05 -1.18980e-04 -1.15345e-03
       H -3.38662e-04  1.81995e-03 -2.10559e-03
       H -2.33082e-03  1.40119e-03 -5.76397e-04
       O  3.19212e-04  5.41213e-04 -1.03237e-03
       H  3.13827e-03 -3.21779e-05 -3.03484e-03
       H -1.56661e-03  5.25147e-03 -1.26681e-03
       O -6.46403e-04 -8.18007e-06  1.06855e-03
       H -1.53666e-03  6.50578e-03 -2.65842e-03
       H  2.52414e-03  5.10976e-05  1.69601e-03
       O  4.36827e-04 -3.83496e-04 -1.04904e-03
       H  1.79615e-03 -4.79805e-03  2.70642e-03
       H -5.23598e-04  1.16313e-03 -9.98586e-04
       O  6.03115e-04 -2.65934e-04  4.83358e-04
       H -1.22862e-03  3.70648e-03  2.09195e-03
       H -3.61734e-03  3.45605e-03 -3.15722e-04
       O  1.19964e-04  1.48624e-03  2.26958e-03
       H -4.75108e-03  1.12326e-03 -2.85551e-03
       H  2.66248e-04 -2.96303e-03 -3.18246e-03
       O  7.75216e-04 -4.42865e-04  1.69422e-05
       H  2.15622e-03 -2.52871e-03  3.37447e-03
       H -8.86680e-03  2.37316e-04  4.50996e-03
       O -3.02914e-04  3.62252e-04 -9.03883e-04
       H -5.20969e-03 -3.73580e-03 -1.81290e-03
       H -3.14062e-03 -3.15380e-03 -1.51146e-03
192
# CELL(abcABC):   16.99620    29.43815    27.67315    90.00000    90.00000    90.00000  Step:          30  Bead:      29 velocities{atomic_unit}  cell{atomic_unit}
       O  3.39071e-04  4.42592e-04  5.93694e-04
       H  5.27432e-03  2.14874e-04 -4.25793e-03
       H -7.70293e-03 -2.71150e-03 -4.84429e-03
       O  1.64426e-03 -5.51489e-04  3.99128e-04
       H -5.63332e-03 -3.77940e-04  6.47640e-03
       H -2.91193e-03  8.95100e-03 -1.30037e-03
       O -1.24210e-03 -2.84806e-04 -6.07221e-05
       H  8.91498e-03  9.24016e-04 -5.54527e-03
       H -4.39257e-03  6.82106e-03  3.05309e-03
       O  7.64303e-04  1.61942e-04  1.81070e-03
       H  2.09427e-03  5.66065e-04 -4.17371e-04
       H -5.94965e-03  2.87472e-03  1.99751e-03
       O -4.71250e-04 -1.68160e-04 -6.37978e-04
       H -1.34607e-03  3.33728e-04  6.63196e-04
       H -2.78757e-03 -1.05166e-03  1.01458e-03
       O  4.07399e-04  1.31978e-03  1.67665e-04
       H -2.74508e-03 -4.02513e-03  2.51115e-04
       H -2.63473e-03 -2.13230e-03  2.92284e-03
       O  3.81274e-04  1.02632e-03  4.78642e-04
       H  1.13375e-03 -4.14324e-03 -2.20388e-03
       H -2.99392e-03  3.71786e-03  2.89279e-03
       O -7.13707e-04 -4.97683e-04 -2.76262e-04
       H  3.99915e-03 -9.88413e-04 -1.38988e-05
       H -8.72231e-04  4.36751e-03  1.06244e-03
       O -2.92678e-05  2.52194e-04  2.20562e-04
       H -2.76605e-04  2.15339e-03 -2.10054e-03
       H  3.09958e-03  2.58085e-03 -8.84385e-03
       O  2.82800e-04 -7.58070e-04  1.11515e-03
       H  4.20984e-03 -5.56143e-06  2.24029e-03
       H -2.88636e-04  4.27994e-04  3.17360e-03
       O -3.28041e-04  1.30334e-03 -4.27870e-04
       H  7.28443e-04 -2.53112e-03 -2.14179e-03
       H  5.50328e-03 -6.53593e-03  4.01062e-03
       O  7.14889e-04 -1.38920e-03 -1.78471e-03
       H -1.60297e-03 -5.71344e-03 -1.99752e-03