192
# CELL(abcABC):   16.99620    29.43815    27.67315    90.00000    90.00000    90.00000  Step:           0  Bead:       5 positions{atomic_unit}  cell{atomic_unit}
       O -8.21943e+00 -9.93714e+00 -1.31733e+01
       H  7.30975e+00 -1.09659e+01 -1.36333e+01
       H -6.70309e+00 -1.09427e+01 -1.35003e+01
       O -3.97045e+00 -2.57760e+00 -1.31733e+01
       H -5.43740e+00 -3.60640e+00 -1.36335e+01
       H -2.45410e+00 -3.58307e+00 -1.35002e+01
       O -3.95479e+00 -1.25494e+01 -7.82537e-01
       H -3.95303e+00 -1.43463e+01 -2.27998e-01
       H -4.14654e+00 -1.25640e+01 -2.59980e+00
       O -8.20381e+00 -5.18980e+00 -7.82573e-01
       H -8.20206e+00 -6.98662e+00 -2.28079e-01
       H -8.39554e+00 -5.20430e+00 -2.59985e+00
       O -4.52774e+00 -1.21415e+01 -6.25501e+00
       H -6.04401e+00 -1.11359e+01 -6.58198e+00
       H -3.06070e+00 -1.11128e+01 -6.71509e+00
       O  8.21948e+00 -4.78197e+00 -6.25503e+00
       H  6.70316e+00 -3.77646e+00 -6.58191e+00
       H -7.30970e+00 -3.75321e+00 -6.71514e+00
       O  8.20373e+00 -9.52922e+00 -7.70081e+00
       H  8.39566e+00 -9.51468e+00 -9.51806e+00
       H  8.20220e+00 -7.73240e+00 -7.14624e+00
       O -4.54345e+00 -2.16975e+00 -7.70084e+00
       H -4.35162e+00 -2.15526e+00 -9.51812e+00
       H -4.54503e+00 -3.72917e-01 -7.14634e+00
       O -8.21943e+00 -9.93697e+00  6.63195e-01
       H  7.30977e+00 -1.09657e+01  2.03202e-01
       H -6.70308e+00 -1.09425e+01  3.36227e-01
       O -3.97044e+00 -2.57760e+00  6.63173e-01
       H -5.43747e+00 -3.60635e+00  2.03069e-01
       H -2.45410e+00 -3.58312e+00  3.36346e-01
       O -3.95472e+00 -1.25494e+01  1.30540e+01
       H -3.95309e+00 -1.43462e+01  1.36086e+01
       H -4.14653e+00 -1.25640e+01  1.12368e+01
       O -8.20380e+00 -5.18990e+00  1.30541e+01
       H -8.20202e+00 -6.98672e+00  1.36085e+01
       H -8.39553e+00 -5.20434e+00  1.12368e+01
       O -4.52771e+00 -1.21415e+01  7.58159e+00
       H -6.04402e+00 -1.11360e+01  7.25460e+00
       H -3.06070e+00 -1.11128e+01  7.12152e+00
       O  8.21944e+00 -4.78191e+00  7.58149e+00
       H  6.70312e+00 -3.77633e+00  7.25453e+00
       H -7.30974e+00 -3.75322e+00  7.12139e+00
       O  8.20378e+00 -9.52926e+00  6.13582e+00
       H  8.39564e+00 -9.51474e+00  4.31856e+00
       H  8.20221e+00 -7.73246e+00  6.69037e+00
       O -4.54344e+00 -2.16971e+00  6.13568e+00
       H -4.35161e+00 -2.15522e+00  4.31840e+00
       H -4.54506e+00 -3.72896e-01  6.69017e+00
       O -8.21947e+00  4.78210e+00 -1.31734e+01
       H  7.30974e+00  3.75335e+00 -1.36334e+01
       H -6.70314e+00  3.77651e+00 -1.35002e+01
       O -3.97046e+00  1.21415e+01 -1.31733e+01
       H -5.43745e+00  1.11127e+01 -1.36334e+01
       H -2.45410e+00  1.11360e+01 -1.35002e+01
       O -3.95479e+00  2.16971e+00 -7.82462e-01
       H -3.95303e+00  3.72884e-01 -2.27933e-01
       H -4.14646e+00  2.15509e+00 -2.59975e+00
       O -8.20376e+00  9.52923e+00 -7.82499e-01
       H -8.20200e+00  7.73238e+00 -2.27998e-01
       H -8.39546e+00  9.51472e+00 -2.59977e+00
       O -4.52774e+00  2.57749e+00 -6.25512e+00
       H -6.04400e+00  3.58312e+00 -6.58197e+00
       H -3.06066e+00  3.60618e+00 -6.71512e+00
       O  8.21949e+00  9.93715e+00 -6.25509e+00
       H  6.70318e+00  1.09426e+01 -6.58202e+00
       H -7.30970e+00  1.09659e+01 -6.71526e+00
       O  8.20366e+00  5.18988e+00 -7.70077e+00
       H  8.39552e+00  5.20437e+00 -9.51803e+00
       H  8.20217e+00  6.98669e+00 -7.14625e+00
       O -4.54337e+00  1.25494e+01 -7.70088e+00
       H -4.35159e+00  1.25639e+01 -9.51817e+00
       H -4.54500e+00  1.43462e+01 -7.14634e+00
       O -8.21952e+00  4.78190e+00  6.63226e-01
       H  7.30971e+00  3.75313e+00  2.03107e-01
       H -6.70317e+00  3.77635e+00  3.36440e-01
       O -3.97040e+00  1.21415e+01  6.63326e-01
       H -5.43738e+00  1.11127e+01  2.03185e-01
       H -2.45407e+00  1.11360e+01  3.36426e-01
       O -3.95476e+00  2.16964e+00  1.30541e+01
       H -3.95303e+00  3.72832e-01  1.36087e+01
       H -4.14651e+00  2.15510e+00  1.12369e+01
       O -8.20373e+00  9.52937e+00  1.30540e+01
       H -8.20206e+00  7.73252e+00  1.36085e+01
       H -8.39548e+00  9.51483e+00  1.12368e+01
       O -4.52770e+00  2.57756e+00  7.58140e+00
       H -6.04399e+00  3.58315e+00  7.25450e+00
       H -3.06066e+00  3.60630e+00  7.12138e+00
       O  8.21951e+00  9.93714e+00  7.58157e+00
       H  6.70319e+00  1.09427e+01  7.25463e+00
       H -7.30968e+00  1.09658e+01  7.12140e+00
       O  8.20369e+00  5.18993e+00  6.13578e+00
       H  8.39547e+00  5.20441e+00  4.31850e+00
       H  8.20212e+00  6.98674e+00  6.69030e+00
       O -4.54348e+00  1.25494e+01  6.13570e+00
       H -4.35158e+00  1.25639e+01  4.31845e+00
       H -4.54503e+00  1.43462e+01  6.69025e+00
       O  2.78573e-01 -9.93717e+00 -1.31734e+01
       H -1.18842e+00 -1.09659e+01 -1.36336e+01
       H  1.79493e+00 -1.09427e+01 -1.35002e+01
       O  4.52772e+00 -2.57751e+00 -1.31733e+01
       H  3.06068e+00 -3.60627e+00 -1.36334e+01
       H  6.04403e+00 -3.58305e+00 -1.35003e+01
       O  4.54334e+00 -1.25494e+01 -7.82465e-01
       H  4.54513e+00 -1.43463e+01 -2.27989e-01
       H  4.35168e+00 -1.25640e+01 -2.59974e+00
       O  2.94294e-01 -5.18980e+00 -7.82487e-01
       H  2.96032e-01 -6.98663e+00 -2.28053e-01
       H  1.02602e-01 -5.20427e+00 -2.59977e+00
       O  3.97042e+00 -1.21415e+01 -6.25517e+00
       H  2.45414e+00 -1.11359e+01 -6.58198e+00
       H  5.43747e+00 -1.11128e+01 -6.71526e+00
       O -2.78672e-01 -4.78194e+00 -6.25508e+00
       H -1.79498e+00 -3.77636e+00 -6.58199e+00
       H  1.18837e+00 -3.75320e+00 -6.71514e+00
       O -2.94511e-01 -9.52920e+00 -7.70081e+00
       H -1.02600e-01 -9.51466e+00 -9.51806e+00
       H -2.96005e-01 -7.73240e+00 -7.14625e+00
       O  3.95462e+00 -2.16972e+00 -7.70080e+00
       H  4.14654e+00 -2.15521e+00 -9.51804e+00
       H  3.95318e+00 -3.72879e-01 -7.14628e+00
       O  2.78541e-01 -9.93701e+00  6.63104e-01
       H -1.18842e+00 -1.09658e+01  2.03011e-01
       H  1.79493e+00 -1.09425e+01  3.36333e-01
       O  4.52773e+00 -2.57757e+00  6.63187e-01
       H  3.06068e+00 -3.60633e+00  2.03125e-01
       H  6.04402e+00 -3.58308e+00  3.36357e-01
       O  4.54332e+00 -1.25494e+01  1.30541e+01
       H  4.54518e+00 -1.43462e+01  1.36086e+01
       H  4.35169e+00 -1.25640e+01  1.12368e+01
       O  2.94281e-01 -5.18991e+00  1.30541e+01
       H  2.95995e-01 -6.98675e+00  1.36085e+01
       H  1.02570e-01 -5.20435e+00  1.12368e+01
       O  3.97044e+00 -1.21415e+01  7.58145e+00
       H  2.45413e+00 -1.11360e+01  7.25466e+00
       H  5.43745e+00 -1.11128e+01  7.12135e+00
       O -2.78601e-01 -4.78191e+00  7.58148e+00
       H -1.79495e+00 -3.77634e+00  7.25458e+00
       H  1.18839e+00 -3.75323e+00  7.12138e+00
       O -2.94501e-01 -9.52922e+00  6.13582e+00
       H -1.02637e-01 -9.51466e+00  4.31854e+00
       H -2.96013e-01 -7.73241e+00  6.69035e+00
       O  3.95462e+00 -2.16967e+00  6.13570e+00
       H  4.14656e+00 -2.15516e+00  4.31844e+00
       H  3.95315e+00 -3.72836e-01  6.69024e+00
       O  2.78636e-01  4.78206e+00 -1.31735e+01
       H -1.18832e+00  3.75329e+00 -1.36335e+01
       H  1.79499e+00  3.77651e+00 -1.35003e+01
       O  4.52773e+00  1.21415e+01 -1.31733e+01
       H  3.06066e+00  1.11127e+01 -1.36334e+01
       H  6.04403e+00  1.11360e+01 -1.35003e+01
       O  4.54332e+00  2.16970e+00 -7.82499e-01
       H  4.54510e+00  3.72872e-01 -2.27973e-01
       H  4.35161e+00  2.15513e+00 -2.59979e+00
       O  2.94188e-01  9.52923e+00 -7.82517e-01
       H  2.95976e-01  7.73239e+00 -2.28033e-01
       H  1.02486e-01  9.51470e+00 -2.59980e+00
       O  3.97041e+00  2.57752e+00 -6.25508e+00
       H  2.45414e+00  3.58307e+00 -6.58188e+00
       H  5.43747e+00  3.60626e+00 -6.71516e+00
       O -2.78677e-01  9.93714e+00 -6.25506e+00
       H -1.79497e+00  1.09427e+01 -6.58203e+00
       H  1.18838e+00  1.09659e+01 -6.71517e+00
       O -2.94451e-01  5.18990e+00 -7.70074e+00
       H -1.02475e-01  5.20442e+00 -9.51799e+00
       H -2.95971e-01  6.98671e+00 -7.14623e+00
       O  3.95453e+00  1.25494e+01 -7.70088e+00
       H  4.14650e+00  1.25638e+01 -9.51813e+00
       H  3.95314e+00  1.43462e+01 -7.14638e+00
       O  2.78666e-01  4.78190e+00  6.63181e-01
       H -1.18838e+00  3.75314e+00  2.03219e-01
       H  1.79499e+00  3.77637e+00  3.36305e-01
       O  4.52768e+00  1.21415e+01  6.63233e-01
       H  3.06065e+00  1.11127e+01  2.03130e-01
       H  6.04402e+00  1.11359e+01  3.36318e-01
       O  4.54337e+00  2.16963e+00  1.30541e+01
       H  4.54515e+00  3.72778e-01  1.36085e+01
       H  4.35165e+00  2.15511e+00  1.12368e+01
       O  2.94139e-01  9.52935e+00  1.30540e+01
       H  2.96028e-01  7.73252e+00  1.36085e+01
       H  1.02508e-01  9.51480e+00  1.12368e+01
       O  3.97044e+00  2.57752e+00  7.58146e+00
       H  2.45409e+00  3.58312e+00  7.25468e+00
       H  5.43745e+00  3.60627e+00  7.12136e+00
       O -2.78642e-01  9.93713e+00  7.58156e+00
       H -1.79498e+00  1.09426e+01  7.25459e+00
       H  1.18834e+00  1.09658e+01  7.12145e+00
       O -2.94462e-01  5.18993e+00  6.13575e+00
       H -1.02485e-01  5.20444e+00  4.31854e+00
       H -2.95928e-01  6.98677e+00  6.69031e+00
       O  3.95461e+00  1.25493e+01  6.13580e+00
       H  4.14651e+00  1.25638e+01  4.31854e+00
       H  3.95313e+00  1.43462e+01  6.69028e+00
192
# CELL(abcABC):   16.99620    29.43815    27.67315    90.00000    90.00000    90.00000  Step:          10  Bead:       5 positions{atomic_unit}  cell{atomic_unit}
       O -8.20766e+00 -9.98568e+00 -1.31836e+01
       H  7.36061e+00 -1.09635e+01 -1.36580e+01
       H -6.69040e+00 -1.09404e+01 -1.36010e+01
       O -3.96328e+00 -2.57034e+00 -1.31716e+01
       H -5.68448e+00 -3.56395e+00 -1.36261e+01
       H -2.41969e+00 -3.61624e+00 -1.36750e+01
       O -3.95521e+00 -1.25628e+01 -7.89307e-01
       H -3.83725e+00 -1.42298e+01 -2.26443e-01
       H -3.99431e+00 -1.25887e+01 -2.83965e+00
       O -8.22881e+00 -5.20915e+00 -7.74472e-01
       H -8.12051e+00 -7.00050e+00 -1.72785e-01
       H -8.67276e+00 -5.20606e+00 -2.50333e+00
       O -4.51438e+00 -1.21215e+01 -6.23143e+00
       H -6.09949e+00 -1.11690e+01 -6.68445e+00
       H -3.07351e+00 -1.10943e+01 -6.69897e+00
       O  8.22508e+00 -4.75647e+00 -6.26154e+00
       H  6.68156e+00 -3.79772e+00 -6.55757e+00
       H -7.40020e+00 -3.78906e+00 -6.69442e+00
       O  8.19166e+00 -9.51795e+00 -7.69830e+00
       H  8.44546e+00 -9.32806e+00 -9.45217e+00
       H  8.21948e+00 -7.76679e+00 -7.24245e+00
       O -4.57589e+00 -2.19371e+00 -7.70032e+00
       H -4.21271e+00 -2.00834e+00 -9.54291e+00
       H -4.67376e+00 -4.79603e-01 -7.15285e+00
       O -8.21961e+00 -9.89087e+00  6.77976e-01
       H  7.09019e+00 -1.08731e+01  1.40466e-01
       H -6.66589e+00 -1.10580e+01  4.27816e-01
       O -3.91643e+00 -2.56280e+00  6.58655e-01
       H -5.38304e+00 -3.73594e+00  2.74799e-01
       H -2.58445e+00 -3.67149e+00  2.26425e-01
       O -3.91777e+00 -1.25132e+01  1.30646e+01
       H -3.93750e+00 -1.45179e+01  1.36565e+01
       H -4.17790e+00 -1.26750e+01  1.12751e+01
       O -8.17789e+00 -5.16971e+00  1.30857e+01
       H -8.20448e+00 -7.10171e+00  1.36282e+01
       H -8.18285e+00 -5.24875e+00  1.12371e+01
       O -4.50911e+00 -1.21330e+01  7.58626e+00
       H -5.94562e+00 -1.10186e+01  7.07439e+00
       H -3.02902e+00 -1.10424e+01  7.41491e+00
       O  8.22065e+00 -4.76710e+00  7.54933e+00
       H  6.73201e+00 -3.88518e+00  7.40150e+00
       H -7.31570e+00 -3.62678e+00  7.07245e+00
       O  8.20063e+00 -9.54156e+00  6.14214e+00
       H  8.44838e+00 -9.57572e+00  4.43697e+00
       H  8.10481e+00 -7.86732e+00  6.68795e+00
       O -4.54668e+00 -2.19335e+00  6.10257e+00
       H -4.47828e+00 -1.85325e+00  4.41515e+00
       H -4.39247e+00 -4.33485e-01  6.77311e+00
       O -8.22688e+00  4.75224e+00 -1.31929e+01
       H  7.38643e+00  3.79112e+00 -1.36651e+01
       H -6.69923e+00  3.75191e+00 -1.35310e+01
       O -3.98989e+00  1.21378e+01 -1.31443e+01
       H -5.38135e+00  1.11347e+01 -1.36204e+01
       H -2.48083e+00  1.13373e+01 -1.33709e+01
       O -3.95157e+00  2.17382e+00 -8.32042e-01
       H -3.94525e+00  5.12267e-01 -2.67101e-01
       H -4.15249e+00  2.17305e+00 -2.65551e+00
       O -8.19718e+00  9.56173e+00 -7.73840e-01
       H -8.10968e+00  7.71511e+00 -1.61159e-01
       H -8.40102e+00  9.57654e+00 -2.58177e+00
       O -4.51884e+00  2.56693e+00 -6.27462e+00
       H -5.90684e+00  3.67653e+00 -6.53694e+00
       H -3.11146e+00  3.62835e+00 -6.81502e+00
       O  8.22215e+00  9.93477e+00 -6.27289e+00
       H  6.69927e+00  1.07756e+01 -6.55812e+00
       H -7.37914e+00  1.11923e+01 -6.75554e+00
       O  8.17945e+00  5.20425e+00 -7.71325e+00
       H  8.28765e+00  5.06343e+00 -9.43112e+00
       H  8.11993e+00  7.04695e+00 -7.09815e+00
       O -4.53727e+00  1.24877e+01 -7.72266e+00
       H -4.39152e+00  1.25266e+01 -9.39084e+00
       H -4.68398e+00  1.44896e+01 -7.16341e+00
       O -8.28468e+00  4.74408e+00  6.58515e-01
       H  7.20010e+00  3.73024e+00  2.63457e-01
       H -6.73572e+00  3.58983e+00  3.79550e-01
       O -3.97600e+00  1.21357e+01  6.36714e-01
       H -5.37476e+00  1.10322e+01  2.84624e-01
       H -2.39382e+00  1.12725e+01  2.61144e-01
       O -3.97208e+00  2.18716e+00  1.30921e+01
       H -3.96190e+00  4.01040e-01  1.36585e+01
       H -4.27488e+00  2.20845e+00  1.12050e+01
       O -8.19887e+00  9.52220e+00  1.30643e+01
       H -8.25276e+00  7.66356e+00  1.34975e+01
       H -8.42003e+00  9.54290e+00  1.11451e+01
       O -4.50445e+00  2.55087e+00  7.60022e+00
       H -5.89265e+00  3.52312e+00  7.30938e+00
       H -2.95659e+00  3.55007e+00  7.24410e+00
       O  8.24289e+00  9.91514e+00  7.56851e+00
       H  6.68455e+00  1.10972e+01  7.31341e+00
       H -7.33972e+00  1.08858e+01  7.02148e+00
       O  8.16231e+00  5.21304e+00  6.11744e+00
       H  8.52172e+00  5.30355e+00  4.29691e+00
       H  8.18155e+00  7.01556e+00  6.62397e+00
       O -4.55177e+00  1.25681e+01  6.13316e+00
       H -4.46877e+00  1.24089e+01  4.25391e+00
       H -4.47309e+00  1.44088e+01  6.66179e+00
       O  3.43216e-01 -9.93327e+00 -1.32142e+01
       H -1.19274e+00 -1.11854e+01 -1.35191e+01
       H  1.76630e+00 -1.10313e+01 -1.35675e+01
       O  4.52266e+00 -2.55918e+00 -1.31499e+01
       H  2.92161e+00 -3.61754e+00 -1.35103e+01
       H  6.11210e+00 -3.70943e+00 -1.33998e+01
       O  4.55026e+00 -1.25810e+01 -7.81081e-01
       H  4.56220e+00 -1.43541e+01 -2.21797e-01
       H  4.40149e+00 -1.25918e+01 -2.71536e+00
       O  2.90203e-01 -5.19263e+00 -7.49735e-01
       H  3.14764e-01 -6.86915e+00 -2.87294e-01
       H  4.55426e-02 -5.15500e+00 -2.57774e+00
       O  3.96496e+00 -1.21370e+01 -6.24682e+00
       H  2.33193e+00 -1.09359e+01 -6.44806e+00
       H  5.43745e+00 -1.13204e+01 -6.80860e+00
       O -2.95160e-01 -4.73428e+00 -6.26814e+00
       H -1.85979e+00 -3.82823e+00 -6.45060e+00
       H  1.51946e+00 -3.91613e+00 -6.79225e+00
       O -3.27930e-01 -9.57424e+00 -7.70220e+00
       H -5.83606e-02 -9.56969e+00 -9.37820e+00
       H -3.98785e-01 -7.64620e+00 -7.14044e+00
       O  3.94866e+00 -2.20366e+00 -7.70830e+00
       H  4.33327e+00 -2.38679e+00 -9.36951e+00
       H  3.91760e+00 -3.97202e-01 -7.01445e+00
       O  2.74285e-01 -9.99865e+00  6.74782e-01
       H -1.09841e+00 -1.08568e+01  3.49759e-01
       H  1.85845e+00 -1.09047e+01  2.87086e-01
       O  4.49241e+00 -2.57279e+00  6.29884e-01
       H  2.85385e+00 -3.67917e+00  2.54785e-01
       H  6.07303e+00 -3.49774e+00  4.59034e-01
       O  4.54880e+00 -1.25711e+01  1.30373e+01
       H  4.56946e+00 -1.43773e+01  1.37725e+01
       H  4.22131e+00 -1.25143e+01  1.13589e+01
       O  2.61496e-01 -5.20001e+00  1.31264e+01
       H  2.93974e-01 -7.11143e+00  1.35827e+01
       H  8.68372e-02 -5.15921e+00  1.10930e+01
       O  3.95409e+00 -1.21358e+01  7.53271e+00
       H  2.46227e+00 -1.11416e+01  7.34607e+00
       H  5.48766e+00 -1.11106e+01  7.04615e+00
       O -2.74648e-01 -4.76835e+00  7.59199e+00
       H -1.86805e+00 -3.80625e+00  7.20141e+00
       H  1.21361e+00 -3.62587e+00  7.17289e+00
       O -2.45488e-01 -9.53787e+00  6.09218e+00
       H -2.41948e-02 -9.50517e+00  4.35108e+00
       H -3.06767e-01 -7.74047e+00  6.57357e+00
       O  4.00582e+00 -2.16191e+00  6.13963e+00
       H  4.34750e+00 -2.21583e+00  4.50891e+00
       H  4.07610e+00 -1.77957e-01  6.61057e+00
       O  2.64745e-01  4.76779e+00 -1.31802e+01
       H -9.56436e-01  3.77998e+00 -1.37591e+01
       H  1.68238e+00  3.82989e+00 -1.36482e+01
       O  4.52193e+00  1.21528e+01 -1.31494e+01
       H  3.15854e+00  1.10943e+01 -1.37874e+01
       H  6.02901e+00  1.11428e+01 -1.36257e+01
       O  4.56503e+00  2.17600e+00 -7.61399e-01
       H  4.40643e+00  4.10328e-01 -2.89698e-01
       H  4.34713e+00  2.21849e+00 -2.58098e+00
       O  2.53754e-01  9.52175e+00 -7.64447e-01
       H  5.06298e-01  7.76440e+00 -2.24926e-01
       H  7.42214e-02  9.49689e+00 -2.74956e+00
       O  3.97685e+00  2.56453e+00 -6.23273e+00
       H  2.51861e+00  3.52062e+00 -6.58743e+00
       H  5.49111e+00  3.69305e+00 -6.68163e+00
       O -2.98783e-01  9.92440e+00 -6.28924e+00
       H -1.79223e+00  1.08710e+01 -6.56063e+00
       H  1.16020e+00  1.08718e+01 -6.68238e+00
       O -3.23498e-01  5.21872e+00 -7.64666e+00
       H -1.59749e-01  5.11272e+00 -9.49883e+00
       H -2.63388e-01  7.00718e+00 -6.99320e+00
       O  3.92040e+00  1.25686e+01 -7.71481e+00
       H  4.28255e+00  1.26120e+01 -9.54307e+00
       H  4.05179e+00  1.43859e+01 -7.09403e+00
       O  2.96714e-01  4.79543e+00  6.56240e-01
       H -1.15501e+00  3.72668e+00  2.97739e-01
       H  1.72301e+00  3.72339e+00  2.86471e-01
       O  4.53126e+00  1.20994e+01  6.88786e-01
       H  3.04323e+00  1.12615e+01  2.19897e-01
       H  6.12394e+00  1.12226e+01  4.44494e-01
       O  4.51439e+00  2.20002e+00  1.30779e+01
       H  4.47922e+00  3.21679e-01  1.37145e+01
       H  4.36966e+00  2.11492e+00  1.11876e+01
       O  3.07226e-01  9.47292e+00  1.30570e+01
       H  2.74104e-01  7.57400e+00  1.34788e+01
       H -3.48285e-02  9.37819e+00  1.13081e+01
       O  3.97240e+00  2.54500e+00  7.62663e+00
       H  2.39601e+00  3.21833e+00  7.21929e+00
       H  5.45703e+00  3.44015e+00  7.11115e+00
       O -2.43085e-01  9.88856e+00  7.60932e+00
       H -1.67707e+00  1.09796e+01  7.28292e+00
       H  1.21601e+00  1.10162e+01  7.23590e+00
       O -3.20396e-01  5.19193e+00  6.10261e+00
       H -6.42019e-02  5.23581e+00  4.27769e+00
       H -1.80759e-01  7.09729e+00  6.66786e+00
       O  3.96989e+00  1.25686e+01  6.14173e+00
       H  4.06031e+00  1.26384e+01  4.20568e+00
       H  3.90632e+00  1.43152e+01  6.49064e+00
192
# CELL(abcABC):   16.99620    29.43815    27.67315    90.00000    90.00000    90.00000  Step:          20  Bead:       5 positions{atomic_unit}  cell{atomic_unit}
       O -8.23518e+00 -9.97199e+00 -1.31269e+01
       H  7.40997e+00 -1.10016e+01 -1.35599e+01
       H -6.55873e+00 -1.09118e+01 -1.36859e+01
       O -3.94562e+00 -2.56145e+00 -1.31382e+01
       H -5.58149e+00 -3.75069e+00 -1.38694e+01
       H -2.40344e+00 -3.65629e+00 -1.37429e+01
       O -4.00608e+00 -1.25331e+01 -7.76855e-01
       H -3.89879e+00 -1.41578e+01 -3.41595e-01
       H -4.04386e+00 -1.27112e+01 -2.80492e+00
       O -8.22496e+00 -5.19991e+00 -8.07908e-01
       H -8.05738e+00 -7.06291e+00 -1.36149e-01
       H -8.56399e+00 -5.20333e+00 -2.46394e+00
       O -4.53019e+00 -1.20915e+01 -6.22767e+00
       H -6.17121e+00 -1.11396e+01 -6.61156e+00
       H -2.94570e+00 -1.11040e+01 -6.74142e+00
       O  8.23840e+00 -4.71677e+00 -6.25733e+00
       H  6.78985e+00 -3.68660e+00 -6.61280e+00
       H -7.40220e+00 -3.79265e+00 -6.68129e+00
       O  8.17496e+00 -9.55986e+00 -7.69657e+00
       H  8.40559e+00 -9.36574e+00 -9.39432e+00
       H  8.29995e+00 -7.73074e+00 -7.29184e+00
       O -4.60557e+00 -2.18792e+00 -7.68998e+00
       H -4.32985e+00 -1.99782e+00 -9.60830e+00
       H -4.68035e+00 -3.96685e-01 -7.18635e+00
       O -8.26553e+00 -9.91409e+00  6.56157e-01
       H  7.05675e+00 -1.08500e+01  2.16452e-01
       H -6.72347e+00 -1.08924e+01  3.74907e-01
       O -3.87645e+00 -2.57677e+00  7.06804e-01
       H -5.34159e+00 -3.79454e+00  2.61946e-01
       H -2.52760e+00 -3.71660e+00  2.60559e-01
       O -3.89069e+00 -1.25319e+01  1.30738e+01
       H -3.93163e+00 -1.43765e+01  1.35766e+01
       H -4.22495e+00 -1.29268e+01  1.12946e+01
       O -8.17399e+00 -5.20456e+00  1.31007e+01
       H -8.33641e+00 -7.00796e+00  1.37499e+01
       H -8.12629e+00 -5.25922e+00  1.11528e+01
       O -4.50218e+00 -1.21432e+01  7.59919e+00
       H -5.95534e+00 -1.07987e+01  7.12727e+00
       H -3.08443e+00 -1.09419e+01  7.47971e+00
       O  8.21065e+00 -4.78160e+00  7.51241e+00
       H  6.95017e+00 -3.88484e+00  7.42691e+00
       H -7.29023e+00 -3.63392e+00  7.10491e+00
       O  8.17024e+00 -9.54901e+00  6.14196e+00
       H  8.50959e+00 -9.55475e+00  4.51311e+00
       H  8.07615e+00 -7.93478e+00  6.90570e+00
       O -4.56564e+00 -2.18900e+00  6.12654e+00
       H -4.58844e+00 -1.86855e+00  4.50633e+00
       H -4.41073e+00 -4.46167e-01  6.91829e+00
       O -8.21299e+00  4.72892e+00 -1.32441e+01
       H  7.26247e+00  3.70519e+00 -1.36174e+01
       H -6.76680e+00  3.88755e+00 -1.36486e+01
       O -3.98703e+00  1.21755e+01 -1.31398e+01
       H -5.39377e+00  1.12928e+01 -1.34530e+01
       H -2.34997e+00  1.13169e+01 -1.34522e+01
       O -3.91972e+00  2.15493e+00 -8.58184e-01
       H -4.08552e+00  4.38732e-01 -3.79819e-01
       H -4.14413e+00  2.07522e+00 -2.60064e+00
       O -8.22683e+00  9.56711e+00 -7.93621e-01
       H -8.06350e+00  7.80424e+00 -1.45835e-01
       H -8.65292e+00  9.59403e+00 -2.63062e+00
       O -4.49879e+00  2.56711e+00 -6.25886e+00
       H -5.87572e+00  3.59157e+00 -6.61811e+00
       H -3.15453e+00  3.48792e+00 -6.92655e+00
       O  8.22177e+00  9.97147e+00 -6.27640e+00
       H  6.52737e+00  1.06799e+01 -6.51164e+00
       H -7.42321e+00  1.11092e+01 -6.67919e+00
       O  8.18470e+00  5.21088e+00 -7.67644e+00
       H  8.27298e+00  4.95871e+00 -9.54042e+00
       H  8.17812e+00  6.97546e+00 -7.21396e+00
       O -4.51132e+00  1.24841e+01 -7.75343e+00
       H -4.51534e+00  1.25046e+01 -9.39659e+00
       H -4.58052e+00  1.45645e+01 -7.20614e+00
       O -8.30568e+00  4.72421e+00  6.54215e-01
       H  7.22878e+00  3.73604e+00  1.59236e-01
       H -6.64289e+00  3.62566e+00  4.98295e-01
       O -3.99967e+00  1.21173e+01  6.86098e-01
       H -5.27630e+00  1.10961e+01  3.74837e-01
       H -2.50310e+00  1.11870e+01  3.25315e-01
       O -4.00806e+00  2.16263e+00  1.30683e+01
       H -3.93753e+00  4.20422e-01  1.37073e+01
       H -4.37863e+00  2.15336e+00  1.11895e+01
       O -8.18690e+00  9.48899e+00  1.30699e+01
       H -8.32283e+00  7.68833e+00  1.35291e+01
       H -8.49207e+00  9.66197e+00  1.10121e+01
       O -4.48262e+00  2.56465e+00  7.56205e+00
       H -6.06604e+00  3.48145e+00  7.42253e+00
       H -3.10353e+00  3.49346e+00  7.08183e+00
       O  8.22723e+00  9.93229e+00  7.56462e+00
       H  6.74035e+00  1.11777e+01  7.32094e+00
       H -7.42838e+00  1.08609e+01  7.08200e+00
       O  8.16670e+00  5.23696e+00  6.06862e+00
       H  8.63000e+00  5.29370e+00  4.38461e+00
       H  8.21961e+00  6.98841e+00  6.69394e+00
       O -4.53361e+00  1.25425e+01  6.13187e+00
       H -4.47562e+00  1.24047e+01  4.05921e+00
       H -4.41397e+00  1.43759e+01  6.66536e+00
       O  3.45926e-01 -9.92169e+00 -1.32305e+01
       H -1.11934e+00 -1.12929e+01 -1.32987e+01
       H  1.72728e+00 -1.11470e+01 -1.34708e+01
       O  4.56141e+00 -2.53996e+00 -1.31337e+01
       H  2.95605e+00 -3.63054e+00 -1.34326e+01
       H  6.30522e+00 -3.82550e+00 -1.33637e+01
       O  4.52966e+00 -1.26204e+01 -8.31643e-01
       H  4.50459e+00 -1.43983e+01 -2.33821e-01
       H  4.33618e+00 -1.25937e+01 -2.68767e+00
       O  2.58601e-01 -5.25769e+00 -7.54855e-01
       H  2.48782e-01 -6.98729e+00 -2.18343e-01
       H  1.67308e-01 -5.15113e+00 -2.56074e+00
       O  3.93524e+00 -1.21197e+01 -6.28233e+00
       H  2.18530e+00 -1.09905e+01 -6.42666e+00
       H  5.34676e+00 -1.13555e+01 -6.83795e+00
       O -2.98651e-01 -4.77924e+00 -6.26261e+00
       H -1.95748e+00 -3.82104e+00 -6.68214e+00
       H  1.59169e+00 -3.83692e+00 -6.77524e+00
       O -3.48527e-01 -9.57429e+00 -7.69810e+00
       H -2.77012e-02 -9.48299e+00 -9.39927e+00
       H -2.73400e-01 -7.58942e+00 -7.23996e+00
       O  3.93893e+00 -2.19355e+00 -7.69465e+00
       H  4.38672e+00 -2.46918e+00 -9.43999e+00
       H  3.99770e+00 -3.56633e-01 -7.24252e+00
       O  2.53961e-01 -9.97048e+00  6.80858e-01
       H -1.02228e+00 -1.08576e+01  2.99430e-01
       H  1.72301e+00 -1.07944e+01  2.53842e-01
       O  4.53107e+00 -2.58275e+00  6.59505e-01
       H  2.73909e+00 -3.76517e+00  2.84835e-01
       H  6.00808e+00 -3.51159e+00  3.66262e-01
       O  4.54153e+00 -1.25406e+01  1.31025e+01
       H  4.47687e+00 -1.43491e+01  1.36268e+01
       H  4.16788e+00 -1.24555e+01  1.14391e+01
       O  2.90080e-01 -5.15687e+00  1.31446e+01
       H  3.84527e-02 -7.08647e+00  1.36298e+01
       H -1.44936e-02 -5.19744e+00  1.11151e+01
       O  3.94189e+00 -1.21222e+01  7.54306e+00
       H  2.46145e+00 -1.10386e+01  7.34352e+00
       H  5.34588e+00 -1.10350e+01  6.98986e+00
       O -2.31903e-01 -4.75965e+00  7.55423e+00
       H -1.78132e+00 -3.89650e+00  7.08976e+00
       H  1.20297e+00 -3.70415e+00  7.17736e+00
       O -2.63150e-01 -9.51999e+00  6.05990e+00
       H  7.57349e-02 -9.56029e+00  4.24484e+00
       H -2.81137e-01 -7.72403e+00  6.50170e+00
       O  4.01877e+00 -2.14198e+00  6.09613e+00
       H  4.40422e+00 -2.17943e+00  4.40234e+00
       H  4.06035e+00 -1.30785e-01  6.55393e+00
       O  2.65309e-01  4.74082e+00 -1.31440e+01
       H -1.12017e+00  3.90954e+00 -1.38571e+01
       H  1.59036e+00  3.72638e+00 -1.35820e+01
       O  4.59425e+00  1.21791e+01 -1.31941e+01
       H  3.27273e+00  1.09283e+01 -1.37479e+01
       H  5.96293e+00  1.13481e+01 -1.38074e+01
       O  4.55780e+00  2.17098e+00 -7.41625e-01
       H  4.53289e+00  4.22706e-01 -3.05042e-01
       H  4.27561e+00  2.35487e+00 -2.48697e+00
       O  2.19068e-01  9.51083e+00 -7.70468e-01
       H  5.91671e-01  7.81546e+00 -1.43879e-01
       H  2.70671e-01  9.62308e+00 -2.76293e+00
       O  3.92166e+00  2.56336e+00 -6.22946e+00
       H  2.46724e+00  3.56557e+00 -6.42860e+00
       H  5.54883e+00  3.83588e+00 -6.64417e+00
       O -2.97350e-01  9.93679e+00 -6.33000e+00
       H -1.74884e+00  1.08115e+01 -6.75776e+00
       H  1.21801e+00  1.08334e+01 -6.63451e+00
       O -3.36227e-01  5.22003e+00 -7.69150e+00
       H -5.50281e-02  5.09470e+00 -9.39722e+00
       H -2.23642e-01  7.15016e+00 -6.90121e+00
       O  3.96920e+00  1.25904e+01 -7.72236e+00
       H  4.23244e+00  1.25849e+01 -9.54111e+00
       H  4.05684e+00  1.41832e+01 -6.97195e+00
       O  2.93058e-01  4.79722e+00  6.45319e-01
       H -1.13297e+00  3.64627e+00  3.54515e-01
       H  1.81872e+00  3.63252e+00  4.00674e-01
       O  4.50177e+00  1.20598e+01  6.93634e-01
       H  3.04462e+00  1.12625e+01  2.18167e-01
       H  6.25567e+00  1.12554e+01  3.60513e-01
       O  4.51261e+00  2.21048e+00  1.30825e+01
       H  4.39097e+00  4.60503e-01  1.37177e+01
       H  4.27359e+00  2.05376e+00  1.11436e+01
       O  2.98712e-01  9.49355e+00  1.30003e+01
       H  3.16137e-01  7.59093e+00  1.34595e+01
       H -1.08455e-01  9.40845e+00  1.13351e+01
       O  3.95204e+00  2.57730e+00  7.59492e+00
       H  2.26507e+00  3.04032e+00  7.27361e+00
       H  5.48569e+00  3.31304e+00  7.04837e+00
       O -2.15173e-01  9.89836e+00  7.65932e+00
       H -1.65175e+00  1.09590e+01  7.29667e+00
       H  1.21148e+00  1.09860e+01  7.30250e+00
       O -3.11687e-01  5.20833e+00  6.07470e+00
       H -2.38941e-01  5.18770e+00  4.15118e+00
       H -3.28261e-02  7.01104e+00  6.61464e+00
       O  3.98226e+00  1.25738e+01  6.13407e+00
       H  4.05426e+00  1.28809e+01  4.23278e+00
       H  3.85299e+00  1.42814e+01  6.45060e+00
192
# CELL(abcABC):   16.99620    29.43815    27.67315    90.00000    90.00000    90.00000  Step:          30  Bead:       5 positions{atomic_unit}  cell{atomic_unit}
       O -8.26108e+00 -9.99088e+00 -1.31106e+01
       H  7.30908e+00 -1.11064e+01 -1.37348e+01
       H -6.42830e+00 -1.10062e+01 -1.36256e+01
       O -3.93135e+00 -2.56481e+00 -1.31462e+01
       H -5.60705e+00 -3.93308e+00 -1.39060e+01
       H -2.34371e+00 -3.61326e+00 -1.35963e+01
       O -3.98069e+00 -1.25535e+01 -7.83153e-01
       H -3.88039e+00 -1.43690e+01 -4.05000e-01
       H -4.05194e+00 -1.28462e+01 -2.72381e+00
       O -8.22013e+00 -5.18220e+00 -8.15940e-01
       H -8.14894e+00 -6.97868e+00 -9.25446e-02
       H -8.72968e+00 -5.26191e+00 -2.73500e+00
       O -4.49691e+00 -1.21057e+01 -6.22431e+00
       H -6.04429e+00 -1.11533e+01 -6.47194e+00
       H -2.88315e+00 -1.11100e+01 -6.58641e+00
       O  8.24050e+00 -4.70192e+00 -6.24590e+00
       H  6.91357e+00 -3.48530e+00 -6.57878e+00
       H -7.39539e+00 -3.80717e+00 -6.78168e+00
       O  8.18869e+00 -9.58941e+00 -7.68188e+00
       H  8.23376e+00 -9.41225e+00 -9.38621e+00
       H  8.28991e+00 -7.80788e+00 -7.39726e+00
       O -4.57073e+00 -2.18596e+00 -7.68826e+00
       H -4.30463e+00 -2.28881e+00 -9.57092e+00
       H -4.62628e+00 -3.70760e-01 -7.25326e+00
       O -8.29268e+00 -9.94036e+00  6.82885e-01
       H  6.88450e+00 -1.11400e+01  2.34639e-01
       H -6.75008e+00 -1.08933e+01  2.93248e-01
       O -3.90438e+00 -2.56119e+00  7.45010e-01
       H -5.39609e+00 -3.78427e+00  3.91849e-01
       H -2.54741e+00 -3.73567e+00  2.35852e-01
       O -3.90463e+00 -1.25772e+01  1.30982e+01
       H -4.15256e+00 -1.44162e+01  1.35048e+01
       H -4.17984e+00 -1.29978e+01  1.12339e+01
       O -8.16513e+00 -5.20834e+00  1.30559e+01
       H -8.23408e+00 -7.00449e+00  1.36848e+01