192
# CELL(abcABC):   16.99620    29.43815    27.67315    90.00000    90.00000    90.00000  Step:           0  Bead:      28 velocities{atomic_unit}  cell{atomic_unit}
       O  1.31585e-03  7.60128e-04  1.27836e-03
       H -2.32058e-03  8.74590e-04  4.21189e-03
       H -3.54764e-03 -2.09448e-03 -2.11958e-03
       O  5.92747e-04  7.01692e-04  1.62962e-03
       H  5.57340e-03 -3.01342e-03 -1.64132e-03
       H -6.06317e-03 -1.58966e-04  5.85260e-03
       O  1.46242e-03  6.28697e-04 -5.76937e-04
       H  2.93765e-03 -5.27133e-03  1.57554e-03
       H  9.08564e-04  1.22767e-03  3.73509e-03
       O -1.51809e-03  8.18281e-04 -6.70815e-04
       H -1.23608e-03 -2.12788e-03 -3.93781e-03
       H -1.27109e-03 -1.48329e-03  5.11787e-03
       O -5.18370e-04 -6.17097e-04  9.99017e-05
       H  1.28248e-02 -2.79827e-03 -7.87796e-03
       H -3.19852e-03 -5.25673e-03 -2.76501e-03
       O  2.12249e-04  4.22022e-04  1.24466e-04
       H -5.33460e-03  5.33660e-03  4.73128e-04
       H  2.92152e-03  1.37338e-03 -4.15631e-03
       O  3.51761e-04  3.71667e-04  1.20717e-03
       H  3.63415e-03 -3.78513e-04  1.13518e-02
       H -2.75942e-03 -4.81211e-04 -2.48889e-03
       O  9.67410e-06  1.94792e-03 -9.08389e-04
       H -3.87252e-03  3.08692e-03  2.73584e-03
       H  1.22748e-03 -2.62043e-03  9.62753e-04
       O  1.26575e-03 -1.95280e-04  2.86529e-03
       H -1.10825e-03 -1.92423e-03 -3.64432e-03
       H  2.27443e-03  3.01445e-03 -3.72207e-03
       O  1.28794e-03  6.78057e-04  8.33363e-04
       H  2.83195e-03  2.01374e-03 -7.17153e-03
       H -4.31467e-03 -2.98382e-03  3.64771e-03
       O  1.73140e-04  1.00287e-03  5.66318e-04
       H -4.20890e-03  3.16361e-03 -3.78804e-03
       H -2.28936e-04 -3.14082e-03 -2.82499e-03
       O -1.16819e-03 -1.94156e-03 -1.51739e-04
       H -1.75905e-03 -4.14764e-03 -9.57308e-04
       H -5.29557e-03  2.80143e-04 -7.65921e-03
       O -9.30915e-04 -1.00812e-03 -4.79484e-04
       H -2.06844e-03  5.97890e-03  1.51966e-04
       H  5.18404e-03 -2.90768e-04 -1.77468e-03
       O  1.97619e-04 -1.06803e-03  1.60324e-04
       H -3.59264e-03  6.88024e-04  2.11189e-03
       H  1.78871e-03 -1.92589e-03 -4.80802e-03
       O  4.69368e-04  9.53348e-04 -1.66949e-04
       H  7.05123e-03  5.85569e-03  4.64941e-03
       H -3.51230e-04 -2.17864e-03 -2.06483e-03
       O  1.17669e-03 -1.19439e-03  6.61224e-04
       H -1.86357e-03 -3.33865e-03  4.50969e-03
       H  1.26047e-03 -2.67452e-03 -1.57580e-03
       O -8.40083e-04  1.50171e-03  6.85134e-04
       H -8.92565e-04 -1.77071e-03  1.66208e-03
       H  3.13617e-03 -1.04624e-03  4.83667e-03
       O  1.01720e-03 -6.26691e-04  1.08886e-03
       H -3.34822e-03 -3.11072e-03 -3.50543e-03
       H -2.57542e-03 -1.88198e-03 -1.90072e-03
       O  2.17938e-03 -7.99908e-04  5.63278e-05
       H -1.61227e-03 -1.62168e-03  6.97175e-03
       H  4.99539e-03 -1.92645e-03 -3.73146e-03
       O -4.15613e-04 -1.13514e-03  5.53011e-04
       H  4.58872e-03  1.18948e-04 -3.01313e-03
       H  6.97446e-04 -1.86656e-03 -9.42877e-03
       O  1.12540e-03  1.37906e-03 -1.33592e-03
       H  1.53279e-04  6.43157e-04 -8.59566e-03
       H -4.93626e-04 -3.99755e-03  2.65855e-03
       O  3.40541e-04 -6.06872e-04 -1.91327e-05
       H  6.70781e-04  3.07889e-03 -2.30969e-03
       H -3.18416e-04 -4.13831e-03 -1.32765e-03
       O  2.67872e-04  4.58348e-04 -7.20293e-04
       H  2.21212e-03 -3.79290e-03 -4.18771e-03
       H  8.10664e-03  3.43156e-03  2.59447e-03
       O  1.19649e-04 -1.18173e-03  1.52096e-05
       H -2.60528e-03  6.21973e-03  3.50601e-03
       H -1.30068e-03  9.00855e-04  3.18139e-03
       O  2.57284e-04  5.86215e-04 -8.26692e-04
       H -4.45359e-04 -2.94561e-03  2.84527e-03
       H  6.13972e-04  1.60753e-03  3.94944e-03
       O -8.04604e-04 -1.63798e-03  4.84176e-04
       H -2.25829e-03 -2.01492e-03  1.40624e-03
       H -2.95681e-03 -1.75753e-03  9.42526e-04
       O  3.78851e-04 -2.75503e-03 -9.81751e-04
       H  3.13605e-03 -2.09097e-04  3.97751e-03
       H  3.09247e-03  2.27371e-03 -1.03532e-02
       O  8.66623e-04 -1.21096e-03  1.25381e-06
       H  4.29716e-03 -2.83772e-03 -6.71952e-03
       H -2.23114e-03  1.27494e-03  1.41207e-03
       O  7.33330e-04 -3.83289e-04 -4.08227e-04
       H -2.61465e-03 -4.88341e-03  3.43403e-03
       H -1.46538e-03  6.95115e-04  5.62403e-03
       O  5.45615e-04  1.05433e-03 -3.41950e-04
       H  2.38074e-03  2.80680e-03  2.28586e-03
       H  6.30942e-04 -6.46466e-03 -1.05768e-03
       O  9.58208e-05  6.41584e-04  4.73462e-04
       H -1.88438e-03 -2.96727e-04 -1.08264e-02
       H -3.38521e-03  1.63578e-03 -2.66851e-03
       O  3.26156e-04 -1.34932e-03  1.80177e-03
       H -3.25010e-03 -7.64536e-03 -3.99999e-03
       H -3.33373e-03 -1.28576e-03 -4.55228e-03
       O -9.15384e-04 -1.59307e-03 -7.60649e-04
       H -4.07720e-04  6.40638e-04  5.30199e-03
       H  1.30636e-04  1.61401e-03  9.53488e-04
       O -4.64475e-04 -1.49922e-03  5.22337e-04
       H  2.86244e-03  7.30290e-03  5.30387e-03
       H -1.29232e-03  2.66604e-05 -4.19210e-03
       O -8.91292e-04 -8.90932e-06 -8.90465e-04
       H -3.62460e-03 -3.28573e-03 -2.33558e-03
       H  4.65736e-03  3.98647e-03  1.97981e-03
       O  6.36948e-04 -5.38531e-04  1.36258e-04
       H  3.58413e-04  2.39304e-03  4.57359e-03
       H -3.07549e-03 -2.22378e-04  1.86698e-03
       O -3.86579e-05  2.05683e-03  2.49252e-05
       H -6.09171e-03 -1.20650e-03 -1.42150e-03
       H -2.70245e-03 -1.56432e-03 -1.84539e-05
       O  2.05404e-04  4.52437e-04  7.33126e-04
       H -4.00474e-03 -1.38574e-03 -6.46762e-03
       H  8.80820e-05 -7.22817e-03  1.46113e-03
       O -3.31413e-04  4.89952e-04  1.39482e-03
       H  6.85724e-03 -3.47443e-03 -5.48013e-03
       H -8.17294e-03 -6.01699e-03 -1.60202e-03
       O -6.19453e-04 -5.12817e-04  6.11380e-04
       H  2.55328e-03 -2.00190e-03 -6.16013e-03
       H  1.78483e-03  3.79337e-03  3.94185e-03
       O  1.40640e-03  3.05110e-04  6.21927e-04
       H -4.27298e-03 -3.08990e-03 -2.67485e-03
       H -4.34710e-03 -1.84453e-03 -4.87664e-03
       O -3.60777e-04 -9.04080e-04 -1.45945e-03
       H  8.21557e-05  2.03985e-03  3.99834e-03
       H -1.35807e-03 -8.39766e-04  6.55388e-03
       O  1.05008e-03  6.00338e-04  2.47983e-03
       H -2.46160e-04  2.69073e-04  6.86716e-04
       H  3.07352e-03  1.16911e-03 -4.25436e-03
       O -3.32583e-04  5.86530e-05  5.24220e-04
       H  3.71681e-03  5.93482e-04  7.04829e-03
       H -5.51568e-03  3.02206e-03 -3.23796e-03
       O -1.40883e-03  1.71514e-04  2.32130e-04
       H  2.51591e-05 -9.55451e-04 -5.09970e-03
       H -1.56485e-05 -1.49619e-04 -7.01965e-03
       O -9.51709e-04  4.54381e-04 -5.21532e-04
       H -7.71208e-03  3.61547e-04 -3.58868e-03
       H  1.58186e-03 -3.14139e-03  6.70506e-03
       O -2.21627e-03  1.17122e-05  4.80070e-04
       H -1.69117e-03  1.40746e-03 -1.31547e-03
       H  4.15810e-03  1.15084e-03 -6.09864e-04
       O  1.33437e-03 -5.81732e-04  2.55682e-04
       H -1.53390e-03 -1.27881e-04 -6.44940e-03
       H -4.62613e-04  5.13982e-03  5.92582e-03
       O -1.52340e-03  2.06855e-03  1.76325e-03
       H -4.22979e-03  3.24972e-04  7.78376e-04
       H -4.42065e-03  1.93798e-03 -4.36984e-03
       O -1.65655e-03  2.80950e-04  4.37600e-04
       H -3.80635e-04 -2.50198e-03 -9.61934e-04
       H  1.74701e-03  1.40567e-03  1.65233e-03
       O -1.46007e-03  1.48222e-04 -1.19008e-03
       H  8.67676e-04  3.85095e-03  1.49831e-03
       H -1.14975e-03  8.96596e-04  5.34752e-03
       O  1.13947e-04  1.00863e-04  8.69484e-04
       H  4.66587e-04  9.68225e-03 -3.38972e-03
       H -1.36819e-02  6.23208e-04 -1.63272e-03
       O  3.75438e-04 -3.13913e-04  4.86289e-04
       H -1.59093e-03  4.40494e-03  7.14279e-03
       H  3.69098e-03  9.27655e-04  6.15903e-03
       O  9.35092e-04 -8.61733e-04  1.31195e-03
       H  9.60513e-06  6.03052e-03 -5.19165e-03
       H  4.69718e-03  1.16619e-03  1.47831e-03
       O  5.81954e-04 -1.29231e-04 -1.11976e-03
       H  3.23108e-03  7.31553e-04 -5.81210e-04
       H  3.20149e-03 -1.54855e-04 -3.51973e-03
       O  1.13653e-03 -3.98873e-04 -6.62700e-04
       H -1.73045e-05  1.15868e-03  4.57795e-03
       H  6.08651e-03 -1.28698e-03  1.26582e-03
       O  3.55378e-04  1.91783e-04 -4.05343e-04
       H  5.38419e-04  2.64772e-03  1.76465e-03
       H  4.35126e-03  5.75004e-03 -4.26642e-03
       O  1.48041e-03 -1.05061e-03 -2.75708e-04
       H -2.61413e-03 -2.18711e-03  1.22165e-03
       H  2.51583e-03 -6.18282e-03  5.37856e-03
       O -1.07072e-03 -4.19555e-04 -9.62727e-04
       H -4.97561e-05 -1.48851e-03  2.72439e-03
       H  6.72652e-03  1.84041e-03 -3.29795e-03
       O -2.75803e-05  1.72384e-04 -3.44362e-04
       H  4.17641e-03  1.80930e-03 -4.02963e-04
       H -6.16526e-04 -2.71951e-03 -4.33146e-03
       O -1.16417e-04 -3.64524e-04 -4.26772e-04
       H  3.62913e-03 -4.53523e-03 -1.68436e-04
       H -1.95142e-03  2.13547e-03 -1.88675e-03
       O  6.47248e-04  8.67249e-04  7.03749e-04
       H  7.64904e-03 -1.45128e-04 -2.92784e-03
       H -4.72050e-04 -1.10665e-03 -5.52008e-03
       O -3.07189e-04 -1.13816e-03  5.41374e-04
       H  9.71440e-04  2.09072e-03  5.19319e-03
       H  7.06847e-03  5.05114e-03  1.05420e-03
       O  3.98020e-05  1.80413e-04  2.14399e-04
       H  3.85702e-03  1.41930e-03 -2.11804e-03
       H -4.12164e-03  4.52048e-03  9.87937e-05
192
# CELL(abcABC):   16.99620    29.43815    27.67315    90.00000    90.00000    90.00000  Step:          10  Bead:      28 velocities{atomic_unit}  cell{atomic_unit}
       O -6.49198e-05 -9.24841e-05 -2.55820e-04
       H -8.42989e-04  8.40295e-05 -1.54631e-03
       H  5.54954e-03 -4.70613e-03  4.22778e-03
       O  1.41585e-03  6.21993e-04  4.77207e-04
       H -5.50299e-03 -1.52297e-03  5.27670e-05
       H -1.97299e-03 -4.19448e-04  6.11652e-03
       O  1.97236e-04 -3.90084e-04 -2.12984e-04
       H  3.35566e-03  3.00142e-03 -4.52770e-03
       H  8.39516e-04  2.01608e-03 -3.72473e-03
       O -5.42111e-04  1.00565e-04 -3.77249e-04
       H -1.52752e-03 -2.55423e-03 -3.69536e-04
       H -1.31109e-03 -6.80412e-03  1.60630e-03
       O  2.20119e-03  3.31749e-04 -1.17175e-03
       H -2.79389e-03 -2.25014e-04 -2.43967e-03
       H -3.70863e-03  2.90122e-03 -1.18137e-03
       O  2.84449e-05  4.09098e-04 -1.26053e-05
       H  1.41791e-03  2.30865e-03  5.10388e-03
       H  6.42662e-04  1.24826e-03 -7.49340e-04
       O  6.12374e-04  1.07999e-03 -5.11237e-04
       H  4.86663e-03  7.01793e-04 -3.31766e-03
       H  2.46750e-03 -5.83633e-04  7.95993e-04
       O  1.13361e-03  1.40556e-03 -1.55136e-03
       H -2.16573e-03 -1.01497e-03 -5.76148e-03
       H -9.49004e-04  8.45493e-04  3.58025e-04
       O -7.69358e-04  5.70259e-04 -2.53748e-04
       H  2.21727e-03 -2.38734e-03 -2.54861e-03
       H  1.19866e-03 -4.49505e-03 -1.96379e-03
       O -1.44199e-03 -9.46504e-04  1.57453e-03
       H  4.21754e-03 -2.16935e-03  7.24802e-04
       H  7.86737e-04  3.58100e-03  4.31667e-03
       O -7.13986e-05  1.72575e-04 -6.42828e-04
       H  3.28056e-03 -2.89465e-04 -6.72958e-04
       H  1.71844e-03  2.27832e-03 -1.72374e-04
       O  4.06816e-05  1.43554e-04 -8.30701e-04
       H  4.21746e-04  1.70453e-03  1.03550e-03
       H -1.89338e-03 -2.51389e-03  2.44736e-03
       O  7.95135e-04 -9.02731e-04 -2.92973e-05
       H  3.60014e-03  1.08410e-03 -6.42732e-03
       H  1.80930e-03  5.11859e-03  2.59198e-03
       O  1.34204e-03 -3.22835e-05  4.48795e-04
       H  2.20689e-03  4.56200e-04  5.96072e-03
       H  1.92843e-03  6.58739e-05 -2.32600e-04
       O  9.46978e-04  8.71644e-04 -1.70063e-03
       H  4.43548e-03  8.38258e-04  4.50224e-04
       H -3.75091e-03  6.09683e-04  1.40473e-03
       O  2.82870e-04 -6.56560e-04  1.00856e-03
       H -1.28300e-04 -4.04370e-03  2.20724e-03
       H -1.46050e-03  1.61634e-04  6.29782e-03
       O -2.04138e-03  6.97629e-04  9.89243e-04
       H -2.12593e-03  3.69558e-04 -3.59773e-03
       H  8.76786e-04  3.50799e-03 -4.73274e-03
       O  1.01995e-04 -5.72847e-04 -8.13431e-04
       H  3.28365e-03 -2.59741e-03  2.95271e-03
       H -5.21641e-04 -1.96928e-03  2.15602e-03
       O -4.47813e-04  9.79827e-04  1.17653e-05
       H  5.10708e-03  1.30694e-03  1.87641e-03
       H  5.50637e-04 -1.02648e-03  7.46618e-04
       O -9.22564e-04 -8.70244e-05 -1.53799e-03
       H  3.15670e-03  3.13374e-03 -4.09113e-04
       H  5.30375e-03  2.37760e-04  3.92706e-03
       O -3.05582e-04 -5.32731e-04 -8.15265e-04
       H -4.57103e-04  6.47263e-03  1.99968e-03
       H  3.39502e-04 -4.85002e-03 -1.98948e-03
       O -1.68928e-03  1.57072e-03  1.10003e-04
       H -3.17600e-03 -2.76445e-03 -9.52895e-03
       H  5.90321e-03 -4.05284e-03 -2.78722e-03
       O -2.44406e-04  1.39509e-04  5.64876e-04
       H  5.61633e-03 -9.78062e-03  4.64004e-03
       H -3.71251e-04 -2.44884e-03 -9.42435e-03
       O  3.42133e-04  5.03916e-04 -1.10926e-03
       H -3.53783e-03  1.17223e-03  2.42065e-03
       H  3.89039e-03 -1.07953e-03  7.00140e-04
       O  1.14056e-03 -6.76332e-04 -1.73230e-04
       H  3.73892e-03 -2.41880e-03  1.81279e-03
       H -3.92651e-03  6.59952e-03  6.48034e-04
       O -6.94165e-04  1.27905e-04  6.84694e-04
       H  3.07668e-03  4.01844e-03 -5.80686e-04
       H -1.56135e-03  3.73920e-03 -2.00056e-03
       O -1.44506e-04  5.29183e-04  8.95455e-05
       H  6.20638e-03 -2.05411e-03  4.98866e-03
       H -6.69528e-04 -4.50623e-03  3.74986e-03
       O  1.09431e-03 -1.91128e-03  5.02666e-04
       H -3.29792e-03 -3.85558e-04 -2.60858e-03
       H -1.60949e-03 -1.57299e-03  3.88314e-05
       O -4.88303e-04  6.24658e-04  1.07034e-05
       H -2.26422e-03 -4.73259e-03  9.15559e-04
       H  5.53863e-03 -1.54934e-04  3.91656e-03
       O  1.58109e-03 -8.17847e-04 -5.68537e-05
       H -5.70603e-03  1.83406e-03  4.12431e-04
       H  1.56808e-03  1.51748e-03  3.95991e-04
       O -4.42151e-05  3.22325e-04 -4.20207e-04
       H -4.84047e-03 -2.08238e-03  1.85735e-03
       H  4.55904e-03  3.63256e-03  2.23726e-03
       O  2.68782e-04 -7.44609e-04  9.23171e-04
       H  2.21002e-03  4.73206e-03  7.04709e-03
       H  3.82835e-04 -4.19526e-04  1.28203e-04
       O  1.03350e-04  9.60237e-05 -9.30732e-04
       H -1.41095e-03 -5.89510e-03  5.20080e-04
       H -4.93580e-03 -5.73784e-03 -8.94564e-04
       O  1.90856e-04  3.39541e-04 -8.78555e-04
       H  2.33741e-03  1.29246e-03  7.37548e-04
       H -2.66018e-03  4.13625e-03 -1.82209e-03
       O  1.96920e-03 -2.10796e-03 -4.60456e-04
       H  2.95265e-03 -2.60659e-04 -1.66970e-04
       H -8.23624e-04  6.31327e-03 -1.52943e-03
       O  1.28278e-03 -4.41604e-04  4.22207e-04
       H  1.28617e-03 -4.50883e-03  7.15470e-03
       H  3.07442e-04  5.08460e-04 -8.47665e-06
       O  8.81704e-04 -7.88927e-04  3.62639e-05
       H -3.42809e-03 -4.03306e-03  5.02677e-03
       H  9.67234e-04 -9.51990e-04  3.72086e-03
       O -3.81503e-04 -4.71405e-04 -8.67323e-04
       H  3.34652e-03  2.36347e-03  8.53499e-04
       H  2.10300e-03  6.89390e-04 -1.31144e-03
       O -6.13501e-04  3.05794e-04 -1.57989e-03
       H  4.71638e-03 -2.50013e-05  3.99801e-03
       H  3.04018e-04  1.93263e-03 -1.41943e-03
       O -4.16422e-04 -1.30338e-04  8.30195e-04
       H -5.79572e-03 -2.70210e-03  2.69717e-03
       H  3.96151e-03 -6.03054e-03  4.98747e-03
       O  1.07141e-03  5.22564e-04  1.66444e-04
       H  5.08004e-03  2.91386e-03 -4.12174e-03
       H  4.18321e-03  2.31065e-03  3.36493e-03
       O  7.29569e-04  6.61551e-04 -4.54912e-04
       H -1.74789e-03 -1.46107e-03  2.16273e-04
       H -1.40869e-03 -2.65701e-03  3.10186e-04
       O  2.35272e-04 -1.42730e-04  4.34699e-04
       H  6.90888e-05 -7.31388e-04 -2.15648e-03
       H -3.80606e-03  1.08179e-02  1.47843e-03
       O  3.58714e-04  9.26668e-04 -2.36839e-04
       H  3.37225e-03 -6.95421e-03  4.26048e-03
       H -3.20894e-03  1.74192e-03  1.56502e-03
       O  4.33025e-04  1.01802e-04 -5.21604e-04
       H  2.59288e-03  3.39729e-03  3.59074e-03
       H -5.15536e-03 -1.94268e-04  9.52837e-05
       O  1.25586e-04  3.23405e-04 -1.77036e-03
       H  3.81970e-03  6.83747e-03 -1.65451e-03
       H  8.46831e-04  3.40564e-03 -5.74956e-03
       O -5.45596e-04 -1.67293e-04 -1.58948e-04
       H -1.07738e-02  2.20222e-03 -3.86175e-03
       H  1.14660e-03  1.27701e-03 -3.27680e-03
       O -3.34751e-04 -3.89559e-04 -9.28964e-04
       H  2.95503e-03 -1.60867e-03  5.32257e-03
       H  2.49807e-03  3.17301e-03  2.66813e-03
       O -2.62484e-05 -4.35567e-04  3.60949e-04
       H -1.72539e-03  3.02782e-03 -8.18055e-04
       H -3.92755e-03  3.73047e-03  5.76902e-03
       O -1.44331e-03 -1.52695e-03  5.72438e-04
       H  4.83193e-03  2.00540e-03  5.07794e-03
       H -4.66328e-03  2.71512e-03  1.85125e-03
       O -9.72415e-05  1.05491e-03  1.64500e-03
       H -1.47878e-03 -1.10081e-03  3.95601e-03
       H  3.12295e-03 -4.72245e-03  4.74262e-03
       O  3.79436e-04 -4.76163e-04 -1.62546e-03
       H  1.27914e-03 -4.57326e-03  1.41407e-03
       H -4.00247e-04 -9.82505e-04 -4.92271e-04
       O -2.94802e-04  8.11767e-04  3.60027e-04
       H -1.39159e-03 -7.11163e-03  5.32671e-03
       H  1.45055e-03  5.35725e-03 -1.38641e-03
       O -1.12378e-03 -6.27996e-04  1.74374e-04
       H -3.81621e-03 -2.53448e-03 -1.95019e-03
       H  3.46913e-03  3.17802e-03  2.25036e-03
       O  6.98305e-04 -3.06407e-04  4.28307e-04
       H  3.06630e-03  5.07854e-03  1.70782e-03
       H -1.68596e-03  1.95450e-03 -4.40851e-03
       O  9.56110e-04  8.29141e-04  3.45942e-04
       H  5.70087e-03 -1.37523e-03  1.72649e-03
       H  6.96101e-03  1.74379e-03 -2.35913e-03
       O -9.90547e-04 -4.67634e-04  9.26163e-04
       H  7.28432e-03 -5.78857e-03  2.93818e-03
       H -1.81461e-03  4.38040e-03 -7.60525e-03
       O  9.95716e-04 -8.45407e-05  3.51775e-04
       H  1.67487e-03  1.35151e-03 -7.21646e-03
       H  2.77306e-03 -6.15229e-03  1.15747e-03
       O -8.99259e-05  4.02638e-04 -5.84663e-04
       H  9.59204e-04 -2.42057e-03  3.59617e-03
       H  1.10834e-03  1.12515e-03 -2.53059e-03
       O  2.00614e-04  4.89630e-04  1.56879e-03
       H  3.05548e-03 -4.87342e-03 -4.39113e-03
       H -3.73200e-03  3.25839e-03 -4.16715e-03
       O  1.24000e-03 -4.24628e-04  8.83896e-04
       H -3.38989e-03 -1.81637e-03  4.46903e-03
       H  8.28326e-04  1.93208e-04  3.28019e-03
       O -1.24934e-04  1.42380e-05  4.62290e-05
       H  5.23133e-04 -4.19552e-04 -7.75974e-04
       H -6.39413e-03  1.42174e-03 -4.43455e-03
       O  7.12404e-05 -1.23670e-03  2.21344e-04
       H -4.33488e-03  2.89687e-04  2.31297e-03
       H -1.23098e-04  6.66562e-03 -2.82826e-04
       O  6.12626e-04 -2.24008e-04 -1.48156e-03
       H -6.45143e-03 -2.00079e-03  8.44129e-03
       H -6.02457e-03 -1.50015e-03  6.23022e-03
192
# CELL(abcABC):   16.99620    29.43815    27.67315    90.00000    90.00000    90.00000  Step:          20  Bead:      28 velocities{atomic_unit}  cell{atomic_unit}
       O -4.41162e-04 -7.63883e-04 -1.73085e-04
       H -4.02147e-03 -4.87164e-03  3.94515e-03
       H -6.51801e-03  4.63999e-03  2.16418e-03
       O  6.06817e-04 -1.19926e-03 -4.16176e-04
       H  1.98479e-03 -3.80963e-03 -1.37890e-03
       H  5.34644e-03 -2.85973e-03  4.56263e-03
       O  1.76257e-04 -1.52763e-04 -1.68673e-04
       H  3.67104e-03 -1.43147e-03 -1.30485e-03
       H -3.72632e-04  4.02685e-03  3.24486e-03
       O -5.82559e-04  8.48937e-05 -5.42056e-04
       H  6.73009e-03  3.01097e-03 -6.15694e-03
       H -4.62794e-03  4.03767e-03 -3.21060e-03
       O -2.69332e-04  8.30812e-04  1.00055e-03
       H  4.05178e-03  4.21490e-04 -1.01063e-03
       H  2.54033e-03  2.42823e-03  2.80476e-03
       O -7.22530e-04 -4.59923e-04 -3.51705e-04
       H -1.28849e-03  2.98787e-03 -1.52348e-03
       H -7.80912e-04 -2.12092e-03 -7.31803e-03
       O  2.01848e-03  6.01267e-04  7.99505e-04
       H -8.59803e-04  4.27651e-03 -8.19974e-03
       H  3.48910e-03  4.24533e-03  1.39014e-03
       O  8.70044e-04 -1.00578e-03  8.02028e-05
       H -8.20187e-04  1.34481e-03  3.01165e-03
       H -1.63289e-03  3.62677e-03 -1.94067e-03
       O  3.30097e-04  1.79534e-04  3.65104e-04
       H -3.58750e-03  2.22480e-03 -4.14494e-03
       H -4.56541e-03 -5.08682e-03 -9.54509e-04
       O  4.11755e-04 -2.87286e-04 -2.54964e-04
       H -4.22931e-03  1.01392e-03  1.69369e-03
       H  5.95062e-04 -1.68444e-03 -5.08843e-03
       O  4.24239e-04  9.01269e-04 -3.00716e-04
       H -2.94425e-04  3.69194e-03  3.66408e-03
       H -3.38910e-03 -4.90155e-04 -6.18059e-04
       O  7.95760e-04  4.14648e-04  5.44847e-04
       H  5.01307e-03 -4.44373e-03 -7.10968e-03
       H -5.58229e-03 -4.59571e-03  4.23835e-03
       O -8.69505e-04 -4.37755e-05 -3.16940e-04
       H  1.47624e-03  7.44734e-04 -4.18813e-04
       H  4.69721e-03 -2.45896e-03 -1.70057e-03
       O  5.66850e-06  5.06687e-04  8.05188e-05
       H  1.55574e-03  4.48944e-03  1.81788e-03
       H  3.22987e-04 -2.73438e-03  2.92805e-03
       O -1.08556e-05  3.66000e-04  6.11268e-04
       H -1.26897e-04 -3.18669e-03  2.40302e-05
       H  2.11983e-03  1.18214e-02  4.97793e-03
       O -9.98673e-04 -3.70903e-04 -1.67495e-03
       H -6.18437e-03 -1.44338e-03 -7.82531e-04
       H -3.25055e-03 -1.61394e-03 -8.84745e-04
       O -8.76977e-04 -4.33963e-05 -6.71566e-04
       H -3.77462e-03 -7.07618e-03 -4.52836e-03
       H -1.92328e-03 -4.08260e-03 -1.47767e-03
       O  6.43542e-04 -2.87338e-04 -6.97780e-04
       H -1.02305e-04  1.92242e-03 -1.03697e-03
       H -4.08024e-03 -1.28304e-03  3.95001e-03
       O  8.40217e-04  5.55625e-04 -1.72555e-04
       H -7.62957e-04 -4.43495e-03  1.59767e-04
       H  5.08291e-03  1.37986e-03  4.78478e-03
       O -6.98239e-04 -2.55767e-04 -1.57197e-03
       H  4.23832e-03 -5.64801e-04 -3.44406e-03
       H  9.69925e-04 -1.06463e-03  3.22475e-03
       O -1.93470e-03 -2.35497e-04  7.81330e-04
       H  1.43861e-03 -5.71217e-04  5.67430e-03
       H  4.75562e-03  1.31085e-03 -1.61271e-03
       O -1.27036e-03  2.21411e-03 -9.11068e-04
       H  1.30347e-03 -3.90213e-03  3.13342e-03
       H -2.05250e-03  3.99722e-03  1.28175e-03
       O  1.13292e-03 -9.83653e-04 -1.29701e-03
       H  2.90227e-03  4.30148e-03  2.11851e-03
       H -3.32600e-03  1.89628e-03 -2.63044e-03
       O -1.93737e-03 -1.84550e-03 -6.80644e-05
       H -1.74620e-03 -1.94552e-03 -6.78620e-03
       H  8.51634e-03  7.43700e-03  1.31448e-03
       O  2.05357e-04 -7.17046e-04  4.86949e-05
       H  4.42724e-03 -2.09470e-03  7.30265e-03
       H -6.16277e-03  7.08855e-04 -9.73446e-03
       O -8.65621e-05 -6.49851e-04 -9.47994e-04
       H -5.02555e-03  7.51331e-03 -3.38165e-03
       H -5.86330e-04  1.19653e-03  4.37004e-03
       O -7.54834e-04 -3.42442e-04 -2.51121e-05
       H  2.41088e-03 -3.82332e-04  8.73664e-04
       H -7.92659e-03  8.07892e-04  2.73810e-03
       O -1.53245e-03 -1.21991e-03 -8.43689e-04
       H -1.85268e-03  2.50877e-03 -2.90861e-03
       H  1.45931e-03  8.09201e-04  4.51462e-03
       O  5.19375e-04 -1.02859e-03 -5.13209e-04
       H -3.20435e-03  4.84106e-04  5.36947e-03
       H -1.58724e-03  4.17820e-03 -5.88528e-03
       O  6.66962e-04  5.45415e-04 -1.96517e-04
       H -5.28971e-04  5.24757e-03 -1.69360e-03
       H -5.80966e-03 -5.24740e-03 -3.25169e-03
       O  2.68083e-04  1.08345e-04 -1.02070e-03
       H  8.49529e-04 -6.54733e-04  1.45282e-04
       H -5.93631e-04  3.18998e-03 -5.95011e-04
       O  5.41782e-04  1.34351e-03  1.70892e-03
       H  6.97856e-04  5.81887e-03  3.21603e-03
       H -1.04309e-02 -5.11634e-04 -1.19432e-03
       O  4.45139e-04  1.88276e-03 -5.48778e-04
       H -4.19112e-03  1.61615e-03  2.61878e-03
       H  1.53574e-03 -3.08684e-03  2.83246e-03
       O  7.00558e-04 -4.74902e-04  1.23292e-03
       H  3.74537e-05 -2.07197e-03  2.62906e-03
       H -3.58797e-03 -5.10914e-03  2.51039e-03
       O  6.97449e-04  4.95607e-04  1.19954e-04
       H  1.39547e-03 -2.17506e-03 -1.11227e-03
       H -6.21879e-03 -3.55155e-03 -1.35008e-03
       O -9.31725e-04 -7.88758e-04 -3.45357e-04
       H -5.88009e-03 -7.89576e-04 -8.32124e-03
       H  3.79666e-03  8.71300e-03 -2.24452e-03
       O  8.05544e-04 -6.33173e-04 -4.31940e-04
       H -7.72527e-03  2.37481e-03  4.08774e-03
       H  5.27096e-03 -2.37136e-03 -1.91659e-03
       O -1.07388e-03 -9.96152e-04  1.70789e-03
       H -4.00177e-03 -8.39336e-03 -1.98780e-03
       H  2.63423e-03 -3.17622e-03  4.29598e-04
       O -3.09498e-04  3.54279e-04 -5.51207e-04
       H  6.04828e-04  2.74741e-03  1.21589e-04
       H  3.65445e-04  2.61287e-04 -2.09806e-03
       O  1.15569e-04 -6.82848e-04  2.02902e-04
       H -5.91293e-03  3.63396e-03 -1.00104e-03
       H -7.44551e-04 -1.12074e-04  1.12310e-03
       O -1.56920e-03 -6.19132e-04 -8.21469e-04
       H  4.19107e-04 -1.93380e-03  3.52517e-03
       H  1.39289e-03  4.19641e-03 -4.13056e-04
       O -8.42961e-06  3.02878e-04  7.58101e-04
       H  4.00073e-03 -3.25152e-04 -1.12595e-03
       H -2.32715e-03 -1.37048e-03 -2.35059e-04
       O  8.20422e-04  1.61372e-03  1.38539e-03
       H -2.82068e-03  1.60486e-03 -2.83359e-03
       H -1.54567e-03 -1.64272e-03  5.46180e-03
       O -1.60680e-03  1.16842e-03  4.22669e-04
       H  6.33591e-03 -3.46310e-03  2.01377e-03
       H  5.46423e-03  1.60686e-03 -4.04694e-03
       O  1.17337e-03 -3.60293e-04  2.49434e-04
       H  9.64170e-04  1.61383e-03 -1.37636e-03
       H  5.73804e-03 -2.88283e-03  2.81800e-03
       O -4.46839e-04 -4.88127e-04  5.89001e-04
       H  1.86057e-03  2.44495e-03  3.38245e-03
       H  2.58715e-03  4.34245e-03  3.85576e-03
       O -1.31899e-03 -4.02781e-04 -1.28840e-03
       H -1.00116e-03 -4.28869e-03 -8.70034e-04
       H  2.09185e-03  4.36689e-03  3.03455e-03
       O -1.48176e-03  1.04965e-04  3.70838e-04
       H -6.49506e-03  5.15663e-03 -5.26460e-03
       H  6.55926e-03  2.55390e-03  6.14154e-05
       O -1.22644e-03 -5.07201e-05 -2.82875e-04
       H -2.53403e-03  9.80593e-03 -3.24232e-03
       H  2.31864e-03 -8.03536e-03 -3.19034e-03
       O  4.19096e-04  8.92135e-04 -6.76214e-04
       H -4.24929e-04  5.96758e-04 -5.98109e-04
       H -1.04329e-03  2.76129e-03  1.16807e-03
       O  1.25461e-04 -1.17933e-03  7.17324e-04
       H -4.26960e-03  3.31769e-03  2.32523e-03
       H -4.61866e-04  3.27618e-03 -4.62867e-03
       O  2.68283e-04 -7.35665e-04 -3.66336e-05
       H -3.97053e-03 -3.04861e-03  2.33605e-03
       H  3.76931e-03  5.24391e-03  4.46346e-03
       O  1.05184e-03  1.22191e-04  9.47505e-04
       H  1.01936e-03  2.64960e-03 -4.33332e-03
       H  2.66870e-03  2.17086e-03  6.00634e-03
       O  7.91998e-04 -8.28403e-04  1.34014e-03
       H  4.98797e-04 -4.09605e-03  2.87036e-03
       H -9.39738e-04 -6.34575e-04  1.35542e-03
       O -8.84060e-04  1.40525e-04 -6.01559e-04
       H  5.66731e-03 -3.18996e-03  1.54627e-03
       H -6.85716e-03  3.51563e-03  3.95085e-03
       O  5.12626e-04 -3.69784e-05  1.01245e-03
       H -2.63111e-03  3.69296e-04  1.22904e-03
       H -9.28834e-03 -2.94028e-03 -4.93876e-03
       O  5.96823e-04  1.03173e-03  2.03692e-04
       H  6.54865e-04  1.44239e-03  4.47907e-03
       H  5.33967e-03 -8.02555e-03  4.43347e-03
       O  1.29915e-03 -1.10865e-03  4.54313e-04
       H  5.44861e-04 -3.25158e-03  1.36764e-03
       H  6.45291e-05  1.11500e-03 -1.15354e-03
       O -1.05051e-03  2.47689e-03 -2.29109e-04
       H -3.15133e-03  1.47211e-03 -8.14728e-05
       H  6.01764e-03  6.65225e-05 -5.26914e-03
       O -8.50151e-04  5.39824e-05 -1.21419e-03
       H -9.67036e-04  1.40696e-03  2.12132e-03
       H  2.00972e-03  8.11247e-03 -5.38177e-03
       O -1.99826e-04 -1.30299e-03  9.51885e-05
       H -8.68774e-04  5.45602e-04  1.42169e-04
       H -3.21064e-04  4.62691e-03  5.40338e-03
       O  1.07826e-04  8.84033e-04 -6.72652e-04
       H -1.46435e-03  4.47587e-03  2.92942e-03
       H -4.58921e-03 -4.08921e-03 -3.30283e-03
       O  1.51021e-03 -2.17891e-04 -5.61994e-04
       H -2.92543e-03  1.13758e-03 -1.26078e-03
       H  7.14748e-03 -3.30112e-03 -7.79006e-03
       O -1.43904e-03  8.75485e-05 -1.78457e-04
       H -1.40689e-03  3.66393e-03 -6.08776e-04
       H  3.84692e-04 -2.16558e-03  2.79494e-03
192
# CELL(abcABC):   16.99620    29.43815    27.67315    90.00000    90.00000    90.00000  Step:          30  Bead:      28 velocities{atomic_unit}  cell{atomic_unit}
       O -5.98092e-05  3.67179e-04 -7.59181e-04
       H -7.02056e-04  3.07036e-03  3.43466e-03
       H -5.41363e-03 -3.24782e-03 -3.20844e-03
       O  1.16553e-04 -5.05551e-05  3.71157e-05
       H  4.09218e-03 -7.18835e-03 -6.62900e-03
       H  4.82534e-03 -4.30025e-03 -3.78274e-03
       O  4.55256e-04 -1.89783e-04 -1.22180e-03
       H -4.30191e-03 -2.32091e-03  3.47604e-03
       H  3.95601e-03  8.95301e-04 -3.57306e-03
       O  1.07145e-03  1.16331e-04  2.05091e-03
       H  3.80095e-05  3.03319e-05  4.60733e-03
       H  5.49734e-03  3.52646e-03 -3.79024e-03
       O  2.45438e-04  3.81615e-04 -1.99198e-05
       H -3.01950e-03  8.97200e-04 -2.83223e-03
       H  1.37748e-03  3.73432e-03 -7.09112e-03
       O -1.62894e-03  4.31116e-04 -1.52955e-03
       H  2.52407e-05 -2.15599e-03 -5.39904e-03
       H -8.69406e-04  2.55056e-03 -4.36926e-03
       O  6.12732e-04 -6.41121e-04  1.46453e-03
       H -5.12292e-03  6.12174e-03  4.52923e-03
       H -3.49975e-03  4.03106e-03  3.44721e-03
       O  3.92205e-04  1.97977e-04 -6.51380e-05
       H  7.35063e-03  2.94055e-04  2.51805e-03
       H  5.59067e-03  6.98986e-03  4.28474e-03
       O  1.95452e-04  1.43612e-03 -7.47420e-04
       H -4.46749e-03  1.09549e-03  9.79516e-05
       H -2.75953e-03  2.89230e-04 -7.72032e-03
       O  5.03736e-04 -9.34636e-04  9.49934e-04
       H  1.98370e-03  3.93815e-03 -2.98537e-03
       H  3.29673e-03  2.91384e-03  6.69026e-03
       O -3.91410e-04  3.24617e-04  6.47266e-04
       H  4.55277e-04  1.76141e-03  5.55034e-04
       H -3.58679e-04  3.39500e-03 -1.01507e-04
       O -7.07391e-04 -1.84288e-04 -9.98687e-04
       H -2.23254e-03  4.50406e-04  8.22171e-05