192
# CELL(abcABC):   16.99620    29.43815    27.67315    90.00000    90.00000    90.00000  Step:           0  Bead:       6 positions{atomic_unit}  cell{atomic_unit}
       O -8.22215e+00 -9.94239e+00 -1.31733e+01
       H  7.30664e+00 -1.09711e+01 -1.36322e+01
       H -6.70615e+00 -1.09482e+01 -1.35006e+01
       O -3.97298e+00 -2.58228e+00 -1.31734e+01
       H -5.44033e+00 -3.61131e+00 -1.36317e+01
       H -2.45697e+00 -3.58820e+00 -1.35005e+01
       O -3.95756e+00 -1.25543e+01 -7.82386e-01
       H -3.95604e+00 -1.43515e+01 -2.29143e-01
       H -4.14759e+00 -1.25671e+01 -2.59983e+00
       O -8.20667e+00 -5.19495e+00 -7.82227e-01
       H -8.20527e+00 -6.99211e+00 -2.28860e-01
       H -8.39642e+00 -5.20788e+00 -2.59970e+00
       O -4.52495e+00 -1.21366e+01 -6.25523e+00
       H -6.04104e+00 -1.11308e+01 -6.58223e+00
       H -3.05766e+00 -1.11077e+01 -6.71383e+00
       O  8.22247e+00 -4.77716e+00 -6.25561e+00
       H  6.70639e+00 -3.77128e+00 -6.58235e+00
       H -7.30644e+00 -3.74813e+00 -6.71411e+00
       O  8.20650e+00 -9.52435e+00 -7.70064e+00
       H  8.39647e+00 -9.51190e+00 -9.51809e+00
       H  8.20529e+00 -7.72704e+00 -7.14768e+00
       O -4.54027e+00 -2.16431e+00 -7.70075e+00
       H -4.35006e+00 -2.15153e+00 -9.51816e+00
       H -4.54166e+00 -3.67089e-01 -7.14744e+00
       O -8.22211e+00 -9.94193e+00  6.63469e-01
       H  7.30672e+00 -1.09707e+01  2.04633e-01
       H -6.70609e+00 -1.09478e+01  3.36365e-01
       O -3.97290e+00 -2.58257e+00  6.63081e-01
       H -5.44032e+00 -3.61148e+00  2.04655e-01
       H -2.45688e+00 -3.58848e+00  3.35971e-01
       O -3.95760e+00 -1.25545e+01  1.30538e+01
       H -3.95614e+00 -1.43517e+01  1.36071e+01
       H -4.14757e+00 -1.25673e+01  1.12363e+01
       O -8.20656e+00 -5.19529e+00  1.30545e+01
       H -8.20517e+00 -6.99250e+00  1.36078e+01
       H -8.39634e+00 -5.20824e+00  1.12370e+01
       O -4.52490e+00 -1.21367e+01  7.58138e+00
       H -6.04102e+00 -1.11309e+01  7.25435e+00
       H -3.05757e+00 -1.11078e+01  7.12272e+00
       O  8.22232e+00 -4.77760e+00  7.58065e+00
       H  6.70627e+00 -3.77169e+00  7.25392e+00
       H -7.30657e+00 -3.74862e+00  7.12211e+00
       O  8.20656e+00 -9.52478e+00  6.13597e+00
       H  8.39651e+00 -9.51229e+00  4.31849e+00
       H  8.20527e+00 -7.72747e+00  6.68889e+00
       O -4.54025e+00 -2.16471e+00  6.13560e+00
       H -4.34999e+00 -2.15183e+00  4.31818e+00
       H -4.54168e+00 -3.67533e-01  6.68897e+00
       O -8.22212e+00  4.77724e+00 -1.31733e+01
       H  7.30671e+00  3.74833e+00 -1.36320e+01
       H -6.70607e+00  3.77135e+00 -1.35002e+01
       O -3.97288e+00  1.21369e+01 -1.31734e+01
       H -5.44030e+00  1.11079e+01 -1.36317e+01
       H -2.45689e+00  1.11310e+01 -1.35006e+01
       O -3.95757e+00  2.16435e+00 -7.82368e-01
       H -3.95607e+00  3.67109e-01 -2.29207e-01
       H -4.14756e+00  2.15166e+00 -2.59983e+00
       O -8.20667e+00  9.52420e+00 -7.81868e-01
       H -8.20527e+00  7.72699e+00 -2.28645e-01
       H -8.39652e+00  9.51128e+00 -2.59932e+00
       O -4.52494e+00  2.58246e+00 -6.25501e+00
       H -6.04100e+00  3.58821e+00 -6.58223e+00
       H -3.05758e+00  3.61139e+00 -6.71360e+00
       O  8.22236e+00  9.94146e+00 -6.25587e+00
       H  6.70631e+00  1.09474e+01 -6.58279e+00
       H -7.30653e+00  1.09705e+01 -6.71435e+00
       O  8.20665e+00  5.19438e+00 -7.70097e+00
       H  8.39659e+00  5.20693e+00 -9.51844e+00
       H  8.20533e+00  6.99167e+00 -7.14797e+00
       O -4.54026e+00  1.25545e+01 -7.70081e+00
       H -4.34992e+00  1.25674e+01 -9.51823e+00
       H -4.54169e+00  1.43517e+01 -7.14749e+00
       O -8.22210e+00  4.77691e+00  6.62996e-01
       H  7.30665e+00  3.74808e+00  2.04431e-01
       H -6.70613e+00  3.77091e+00  3.36028e-01
       O -3.97279e+00  1.21369e+01  6.63306e-01
       H -5.44019e+00  1.11079e+01  2.05006e-01
       H -2.45681e+00  1.11309e+01  3.36133e-01
       O -3.95757e+00  2.16479e+00  1.30545e+01
       H -3.95616e+00  3.67575e-01  1.36077e+01
       H -4.14769e+00  2.15200e+00  1.12370e+01
       O -8.20659e+00  9.52434e+00  1.30546e+01
       H -8.20522e+00  7.72713e+00  1.36079e+01
       H -8.39644e+00  9.51145e+00  1.12371e+01
       O -4.52499e+00  2.58228e+00  7.58148e+00
       H -6.04100e+00  3.58814e+00  7.25437e+00
       H -3.05766e+00  3.61126e+00  7.12297e+00
       O  8.22229e+00  9.94203e+00  7.58108e+00
       H  6.70627e+00  1.09480e+01  7.25419e+00
       H -7.30655e+00  1.09710e+01  7.12260e+00
       O  8.20668e+00  5.19493e+00  6.13567e+00
       H  8.39670e+00  5.20749e+00  4.31823e+00
       H  8.20535e+00  6.99219e+00  6.68874e+00
       O -4.54018e+00  1.25546e+01  6.13603e+00
       H -4.34989e+00  1.25674e+01  4.31861e+00
       H -4.54161e+00  1.43518e+01  6.68925e+00
       O  2.75877e-01 -9.94198e+00 -1.31737e+01
       H -1.19147e+00 -1.09709e+01 -1.36323e+01
       H  1.79191e+00 -1.09478e+01 -1.35009e+01
       O  4.52479e+00 -2.58220e+00 -1.31736e+01
       H  3.05750e+00 -3.61120e+00 -1.36322e+01
       H  6.04084e+00 -3.58815e+00 -1.35003e+01
       O  4.54038e+00 -1.25538e+01 -7.82378e-01
       H  4.54166e+00 -1.43510e+01 -2.29173e-01
       H  4.35042e+00 -1.25666e+01 -2.59983e+00
       O  2.91382e-01 -5.19489e+00 -7.82498e-01
       H  2.92775e-01 -6.99208e+00 -2.29179e-01
       H  1.01240e-01 -5.20770e+00 -2.59994e+00
       O  3.97307e+00 -1.21369e+01 -6.25482e+00
       H  2.45707e+00 -1.11310e+01 -6.58187e+00
       H  5.44043e+00 -1.11080e+01 -6.71350e+00
       O -2.76167e-01 -4.77714e+00 -6.25484e+00
       H -1.79215e+00 -3.77120e+00 -6.58193e+00
       H  1.19122e+00 -3.74822e+00 -6.71327e+00
       O -2.91294e-01 -9.52406e+00 -7.70061e+00
       H -1.01153e-01 -9.51128e+00 -9.51804e+00
       H -2.92737e-01 -7.72684e+00 -7.14734e+00
       O  3.95740e+00 -2.16468e+00 -7.70029e+00
       H  4.14711e+00 -2.15178e+00 -9.51779e+00
       H  3.95613e+00 -3.67477e-01 -7.14700e+00
       O  2.75838e-01 -9.94166e+00  6.63265e-01
       H -1.19143e+00 -1.09706e+01  2.04532e-01
       H  1.79197e+00 -1.09474e+01  3.36068e-01
       O  4.52471e+00 -2.58218e+00  6.62891e-01
       H  3.05743e+00 -3.61117e+00  2.04240e-01
       H  6.04080e+00 -3.58806e+00  3.36089e-01
       O  4.54037e+00 -1.25543e+01  1.30539e+01
       H  4.54173e+00 -1.43516e+01  1.36070e+01
       H  4.35050e+00 -1.25670e+01  1.12364e+01
       O  2.91297e-01 -5.19502e+00  1.30541e+01
       H  2.92732e-01 -6.99225e+00  1.36074e+01
       H  1.01206e-01 -5.20786e+00  1.12367e+01
       O  3.97310e+00 -1.21368e+01  7.58177e+00
       H  2.45707e+00 -1.11309e+01  7.25464e+00
       H  5.44051e+00 -1.11080e+01  7.12302e+00
       O -2.76100e-01 -4.77767e+00  7.58136e+00
       H -1.79210e+00 -3.77177e+00  7.25428e+00
       H  1.19125e+00 -3.74871e+00  7.12290e+00
       O -2.91340e-01 -9.52458e+00  6.13593e+00
       H -1.01282e-01 -9.51181e+00  4.31852e+00
       H -2.92762e-01 -7.72734e+00  6.68916e+00
       O  3.95728e+00 -2.16475e+00  6.13602e+00
       H  4.14704e+00 -2.15175e+00  4.31853e+00
       H  3.95603e+00 -3.67615e-01  6.68942e+00
       O  2.75872e-01  4.77775e+00 -1.31735e+01
       H -1.19145e+00  3.74868e+00 -1.36320e+01
       H  1.79192e+00  3.77189e+00 -1.35005e+01
       O  4.52473e+00  1.21369e+01 -1.31737e+01
       H  3.05744e+00  1.11080e+01 -1.36325e+01
       H  6.04082e+00  1.11311e+01 -1.35004e+01
       O  4.54033e+00  2.16480e+00 -7.82502e-01
       H  4.54166e+00  3.67553e-01 -2.29384e-01
       H  4.35052e+00  2.15214e+00 -2.60000e+00
       O  2.91442e-01  9.52423e+00 -7.82681e-01
       H  2.92837e-01  7.72701e+00 -2.29452e-01
       H  1.01299e-01  9.51146e+00 -2.60013e+00
       O  3.97319e+00  2.58230e+00 -6.25496e+00
       H  2.45717e+00  3.58819e+00 -6.58198e+00
       H  5.44056e+00  3.61109e+00 -6.71379e+00
       O -2.76125e-01  9.94167e+00 -6.25515e+00
       H -1.79212e+00  1.09476e+01 -6.58222e+00
       H  1.19126e+00  1.09706e+01 -6.71377e+00
       O -2.91369e-01  5.19475e+00 -7.70046e+00
       H -1.01380e-01  5.20765e+00 -9.51793e+00
       H -2.92793e-01  6.99195e+00 -7.14718e+00
       O  3.95737e+00  1.25543e+01 -7.70076e+00
       H  4.14703e+00  1.25673e+01 -9.51824e+00
       H  3.95606e+00  1.43514e+01 -7.14726e+00
       O  2.75794e-01  4.77734e+00  6.62959e-01
       H -1.19152e+00  3.74832e+00  2.04499e-01
       H  1.79186e+00  3.77147e+00  3.35887e-01
       O  4.52464e+00  1.21373e+01  6.62988e-01
       H  3.05745e+00  1.11082e+01  2.04218e-01
       H  6.04076e+00  1.11314e+01  3.36450e-01
       O  4.54041e+00  2.16499e+00  1.30543e+01
       H  4.54178e+00  3.67749e-01  1.36074e+01
       H  4.35054e+00  2.15228e+00  1.12368e+01
       O  2.91308e-01  9.52457e+00  1.30538e+01
       H  2.92715e-01  7.72735e+00  1.36071e+01
       H  1.01225e-01  9.51181e+00  1.12363e+01
       O  3.97315e+00  2.58235e+00  7.58152e+00
       H  2.45713e+00  3.58829e+00  7.25455e+00
       H  5.44048e+00  3.61122e+00  7.12279e+00
       O -2.76008e-01  9.94202e+00  7.58171e+00
       H -1.79205e+00  1.09479e+01  7.25468e+00
       H  1.19134e+00  1.09710e+01  7.12317e+00
       O -2.91416e-01  5.19510e+00  6.13606e+00
       H -1.01371e-01  5.20795e+00  4.31863e+00
       H -2.92777e-01  6.99228e+00  6.68938e+00
       O  3.95729e+00  1.25546e+01  6.13612e+00
       H  4.14688e+00  1.25676e+01  4.31864e+00
       H  3.95603e+00  1.43518e+01  6.68952e+00
192
# CELL(abcABC):   16.99620    29.43815    27.67315    90.00000    90.00000    90.00000  Step:          10  Bead:       6 positions{atomic_unit}  cell{atomic_unit}
       O -8.17623e+00 -9.92063e+00 -1.31401e+01
       H  7.38633e+00 -1.10792e+01 -1.34059e+01
       H -6.77966e+00 -1.09373e+01 -1.37824e+01
       O -3.98701e+00 -2.58056e+00 -1.32340e+01
       H -5.62726e+00 -3.60291e+00 -1.38895e+01
       H -2.39138e+00 -3.40938e+00 -1.39205e+01
       O -3.99677e+00 -1.25938e+01 -8.21868e-01
       H -3.85980e+00 -1.43974e+01 -2.73474e-01
       H -4.09465e+00 -1.27463e+01 -2.75901e+00
       O -8.25428e+00 -5.20249e+00 -8.44532e-01
       H -7.98132e+00 -6.96783e+00 -5.95475e-02
       H -8.72756e+00 -5.24896e+00 -2.55808e+00
       O -4.50855e+00 -1.21057e+01 -6.25641e+00
       H -6.26411e+00 -1.13858e+01 -6.52373e+00
       H -2.79913e+00 -1.12786e+01 -6.59941e+00
       O  8.18993e+00 -4.72914e+00 -6.29343e+00
       H  6.72839e+00 -3.59430e+00 -6.76323e+00
       H -7.33714e+00 -3.45708e+00 -6.58183e+00
       O  8.18788e+00 -9.50869e+00 -7.68799e+00
       H  8.17362e+00 -9.36443e+00 -9.46570e+00
       H  8.20798e+00 -7.79510e+00 -7.10200e+00
       O -4.54017e+00 -2.13616e+00 -7.64555e+00
       H -4.17137e+00 -1.91445e+00 -9.40817e+00
       H -4.67393e+00 -5.37721e-01 -6.85386e+00
       O -8.28925e+00 -9.96695e+00  6.91605e-01
       H  6.95974e+00 -1.09964e+01  1.75792e-01
       H -6.68773e+00 -1.12015e+01  1.22502e-01
       O -3.91475e+00 -2.55247e+00  6.46507e-01
       H -5.37609e+00 -3.79051e+00  4.80086e-01
       H -2.57432e+00 -3.80106e+00  2.84535e-01
       O -3.88196e+00 -1.25082e+01  1.30486e+01
       H -3.96764e+00 -1.44202e+01  1.37383e+01
       H -4.28887e+00 -1.24762e+01  1.11455e+01
       O -8.19716e+00 -5.18072e+00  1.30756e+01
       H -8.14258e+00 -7.00046e+00  1.35644e+01
       H -8.29977e+00 -5.52073e+00  1.09783e+01
       O -4.49669e+00 -1.21700e+01  7.58408e+00
       H -5.92900e+00 -1.07437e+01  7.14087e+00
       H -3.10776e+00 -1.08630e+01  7.47799e+00
       O  8.24711e+00 -4.75808e+00  7.58673e+00
       H  6.84099e+00 -4.01847e+00  7.35043e+00
       H -7.31188e+00 -3.53353e+00  7.14272e+00
       O  8.16555e+00 -9.53700e+00  6.10182e+00
       H  8.44305e+00 -9.63930e+00  4.36066e+00
       H  7.97941e+00 -7.92658e+00  6.67878e+00
       O -4.54973e+00 -2.17665e+00  6.08772e+00
       H -4.57589e+00 -1.97217e+00  4.54128e+00
       H -4.40170e+00 -4.27551e-01  6.83954e+00
       O -8.27185e+00  4.74112e+00 -1.32512e+01
       H  7.25856e+00  3.69663e+00 -1.37931e+01
       H -6.73897e+00  4.11912e+00 -1.35720e+01
       O -4.00367e+00  1.21607e+01 -1.31424e+01
       H -5.53240e+00  1.12959e+01 -1.36749e+01
       H -2.49209e+00  1.11234e+01 -1.36008e+01
       O -3.93024e+00  2.16727e+00 -8.48203e-01
       H -4.03050e+00  4.31716e-01 -2.30426e-01
       H -4.29764e+00  2.10469e+00 -2.61156e+00
       O -8.24742e+00  9.52568e+00 -7.57733e-01
       H -8.23187e+00  7.67254e+00 -1.66051e-01
       H -8.50461e+00  9.61290e+00 -2.63423e+00
       O -4.45189e+00  2.60212e+00 -6.25304e+00
       H -5.97987e+00  3.63507e+00 -6.61345e+00
       H -3.05569e+00  3.24500e+00 -6.94158e+00
       O  8.29063e+00  9.96031e+00 -6.23558e+00
       H  6.80562e+00  1.07949e+01 -6.41399e+00
       H -7.24362e+00  1.13142e+01 -6.56233e+00
       O  8.13162e+00  5.24740e+00 -7.69980e+00
       H  8.27839e+00  5.19332e+00 -9.50750e+00
       H  8.16400e+00  6.87114e+00 -7.12573e+00
       O -4.56167e+00  1.25204e+01 -7.70317e+00
       H -4.43946e+00  1.26323e+01 -9.44428e+00
       H -4.77588e+00  1.47807e+01 -7.23639e+00
       O -8.32821e+00  4.70674e+00  6.44930e-01
       H  7.35834e+00  3.81777e+00  3.12109e-01
       H -6.56775e+00  3.56114e+00  5.36495e-01
       O -3.98580e+00  1.21073e+01  6.63944e-01
       H -5.44726e+00  1.10878e+01  3.32348e-01
       H -2.49322e+00  1.14005e+01  3.67762e-01
       O -4.01686e+00  2.14987e+00  1.30533e+01
       H -4.13039e+00  1.54934e-01  1.38203e+01
       H -4.39925e+00  2.19176e+00  1.11981e+01
       O -8.21365e+00  9.50820e+00  1.30120e+01
       H -8.04081e+00  7.47562e+00  1.37282e+01
       H -8.20489e+00  9.62950e+00  1.07595e+01
       O -4.48143e+00  2.54668e+00  7.59922e+00
       H -6.05696e+00  3.37729e+00  7.28489e+00
       H -2.99640e+00  3.40277e+00  7.14978e+00
       O  8.25750e+00  9.92380e+00  7.58006e+00
       H  6.56854e+00  1.09342e+01  7.23474e+00
       H -7.31357e+00  1.10964e+01  7.16439e+00
       O  8.16259e+00  5.21046e+00  6.06681e+00
       H  8.47064e+00  5.17162e+00  4.20308e+00
       H  8.27532e+00  6.87934e+00  6.80142e+00
       O -4.52908e+00  1.25925e+01  6.15267e+00
       H -4.17191e+00  1.26443e+01  4.37509e+00
       H -4.61728e+00  1.45268e+01  6.74297e+00
       O  3.74069e-01 -9.92848e+00 -1.31802e+01
       H -1.13229e+00 -1.12225e+01 -1.32251e+01
       H  1.62802e+00 -1.12004e+01 -1.34767e+01
       O  4.55440e+00 -2.52024e+00 -1.31462e+01
       H  2.99986e+00 -3.64780e+00 -1.33724e+01
       H  6.31398e+00 -3.94514e+00 -1.34876e+01
       O  4.54408e+00 -1.26036e+01 -8.13447e-01
       H  4.40139e+00 -1.44304e+01 -8.61959e-02
       H  4.32872e+00 -1.25151e+01 -2.68266e+00
       O  3.15476e-01 -5.18543e+00 -7.70744e-01
       H  2.07190e-01 -6.89170e+00  9.14537e-02
       H  1.55517e-01 -5.38276e+00 -2.50649e+00
       O  3.97006e+00 -1.21239e+01 -6.20831e+00
       H  2.31655e+00 -1.10543e+01 -6.58930e+00
       H  5.27850e+00 -1.13854e+01 -7.08079e+00
       O -2.68701e-01 -4.80238e+00 -6.20458e+00
       H -1.95556e+00 -3.79539e+00 -6.64160e+00
       H  1.48816e+00 -3.90187e+00 -6.77964e+00
       O -3.86466e-01 -9.55775e+00 -7.68235e+00
       H -5.16177e-02 -9.59503e+00 -9.39097e+00
       H -2.66736e-01 -7.71875e+00 -7.22851e+00
       O  3.90265e+00 -2.18481e+00 -7.64754e+00
       H  4.18823e+00 -2.35530e+00 -9.37990e+00
       H  4.02693e+00 -4.06257e-01 -7.16504e+00
       O  2.42169e-01 -9.92037e+00  6.56147e-01
       H -1.18379e+00 -1.10235e+01  2.01956e-01
       H  1.72810e+00 -1.08266e+01  3.10142e-01
       O  4.54896e+00 -2.53425e+00  6.43839e-01
       H  3.05952e+00 -3.75965e+00  3.57841e-01
       H  6.08557e+00 -3.49876e+00  3.72430e-01
       O  4.57592e+00 -1.25353e+01  1.30995e+01
       H  4.57165e+00 -1.44963e+01  1.35388e+01
       H  4.16986e+00 -1.24747e+01  1.13363e+01
       O  2.76487e-01 -5.17867e+00  1.31055e+01
       H  9.55005e-03 -7.08377e+00  1.36345e+01
       H  1.19104e-01 -5.23849e+00  1.11790e+01
       O  3.95377e+00 -1.21165e+01  7.52021e+00
       H  2.61350e+00 -1.09288e+01  7.31020e+00
       H  5.50727e+00 -1.10182e+01  7.15951e+00
       O -1.90772e-01 -4.75317e+00  7.62267e+00
       H -1.86291e+00 -3.72276e+00  7.28860e+00
       H  1.24871e+00 -3.61583e+00  7.09588e+00
       O -2.98477e-01 -9.49965e+00  6.16527e+00
       H -1.32481e-01 -9.56855e+00  4.25502e+00
       H -3.89847e-01 -7.75162e+00  6.32837e+00
       O  4.04398e+00 -2.09125e+00  6.11497e+00
       H  4.44333e+00 -2.13290e+00  4.27330e+00
       H  4.04169e+00 -4.07354e-01  6.42215e+00
       O  2.18655e-01  4.84343e+00 -1.30874e+01
       H -1.21368e+00  3.69135e+00 -1.38966e+01
       H  1.55032e+00  3.83112e+00 -1.37045e+01
       O  4.55361e+00  1.21561e+01 -1.31759e+01
       H  3.07537e+00  1.08857e+01 -1.38149e+01
       H  6.00247e+00  1.11174e+01 -1.37277e+01
       O  4.53281e+00  2.20405e+00 -7.95332e-01
       H  4.35111e+00  6.33083e-01  8.01477e-02
       H  4.37717e+00  2.18012e+00 -2.49758e+00
       O  2.15254e-01  9.43181e+00 -7.03859e-01
       H  7.26455e-01  7.55389e+00 -3.14781e-01
       H  1.97146e-01  9.75328e+00 -2.53832e+00
       O  3.96616e+00  2.49790e+00 -6.15448e+00
       H  2.62257e+00  3.60837e+00 -6.45510e+00
       H  5.31525e+00  3.73832e+00 -6.52268e+00
       O -3.07661e-01  9.98131e+00 -6.27448e+00
       H -1.94019e+00  1.06789e+01 -6.68398e+00
       H  1.21946e+00  1.10815e+01 -6.66405e+00
       O -3.60165e-01  5.20777e+00 -7.68273e+00
       H  2.00811e-01  5.12975e+00 -9.52068e+00
       H -2.69093e-01  6.94291e+00 -6.84864e+00
       O  3.99055e+00  1.26259e+01 -7.75098e+00
       H  4.17067e+00  1.27221e+01 -9.59680e+00
       H  4.06185e+00  1.43799e+01 -6.93209e+00
       O  2.96874e-01  4.80722e+00  6.60591e-01
       H -1.17086e+00  3.63506e+00  1.77688e-01
       H  1.87708e+00  3.76242e+00  3.93422e-01
       O  4.54549e+00  1.21005e+01  6.91218e-01
       H  3.19897e+00  1.10915e+01  4.00012e-01
       H  6.40868e+00  1.13559e+01  3.57851e-01
       O  4.52552e+00  2.22657e+00  1.30795e+01
       H  4.40311e+00  1.35934e-01  1.35386e+01
       H  4.17119e+00  2.21102e+00  1.12938e+01
       O  3.41131e-01  9.43734e+00  1.29636e+01
       H  2.73327e-01  7.62636e+00  1.37242e+01
       H  3.76463e-02  9.43423e+00  1.11464e+01
       O  3.96888e+00  2.54761e+00  7.57275e+00
       H  2.34854e+00  3.06655e+00  7.20948e+00
       H  5.67892e+00  3.45163e+00  7.00336e+00
       O -1.90527e-01  9.85437e+00  7.66750e+00
       H -1.71374e+00  1.08077e+01  7.26426e+00
       H  8.33461e-01  1.11679e+01  7.36338e+00
       O -2.41302e-01  5.22565e+00  6.04085e+00
       H -9.45719e-02  5.20076e+00  4.03906e+00
       H -1.03503e-01  6.95245e+00  6.59593e+00
       O  4.02714e+00  1.25699e+01  6.14276e+00
       H  4.01607e+00  1.27384e+01  4.11064e+00
       H  3.75386e+00  1.44363e+01  6.52152e+00
192
# CELL(abcABC):   16.99620    29.43815    27.67315    90.00000    90.00000    90.00000  Step:          20  Bead:       6 positions{atomic_unit}  cell{atomic_unit}
       O -8.22156e+00 -9.99355e+00 -1.31082e+01
       H  7.06704e+00 -1.11816e+01 -1.37479e+01
       H -6.69555e+00 -1.12779e+01 -1.37616e+01
       O -3.98047e+00 -2.63233e+00 -1.31618e+01
       H -5.55792e+00 -3.87322e+00 -1.37471e+01
       H -2.24040e+00 -3.47181e+00 -1.36558e+01
       O -3.99938e+00 -1.25332e+01 -7.81087e-01
       H -4.00455e+00 -1.44657e+01 -3.56432e-01
       H -4.26244e+00 -1.29878e+01 -2.66885e+00
       O -8.25206e+00 -5.14586e+00 -7.88420e-01
       H -8.19881e+00 -7.08932e+00 -2.31836e-01
       H -8.61810e+00 -4.94805e+00 -2.59181e+00
       O -4.47683e+00 -1.21116e+01 -6.18785e+00
       H -5.97969e+00 -1.12489e+01 -6.76402e+00
       H -2.63323e+00 -1.12786e+01 -6.69650e+00
       O  8.23294e+00 -4.66756e+00 -6.26730e+00
       H  6.88315e+00 -3.46789e+00 -6.68748e+00
       H -7.04929e+00 -3.80470e+00 -6.71529e+00
       O  8.15470e+00 -9.55506e+00 -7.68478e+00
       H  8.27230e+00 -9.38414e+00 -9.34785e+00
       H  8.37029e+00 -7.64703e+00 -7.12363e+00
       O -4.60263e+00 -2.17960e+00 -7.67957e+00
       H -4.14944e+00 -2.04070e+00 -9.70681e+00
       H -4.74976e+00 -3.34325e-01 -7.10104e+00
       O -8.33955e+00 -9.90895e+00  7.12771e-01
       H  6.89733e+00 -1.10623e+01  2.87240e-01
       H -6.63880e+00 -1.12224e+01 -1.36455e-01
       O -3.89572e+00 -2.57368e+00  7.80874e-01
       H -5.38487e+00 -3.56102e+00  4.00316e-01
       H -2.35284e+00 -3.96316e+00  4.67016e-01
       O -3.90958e+00 -1.25636e+01  1.30018e+01
       H -3.94922e+00 -1.42410e+01  1.35821e+01
       H -4.05379e+00 -1.30490e+01  1.10994e+01
       O -8.17899e+00 -5.20422e+00  1.30176e+01
       H -8.09716e+00 -6.96454e+00  1.38227e+01
       H -8.22604e+00 -5.33264e+00  1.12406e+01
       O -4.44636e+00 -1.22123e+01  7.60903e+00
       H -6.11632e+00 -1.09525e+01  7.27584e+00
       H -3.12425e+00 -1.07490e+01  7.64347e+00
       O  8.30614e+00 -4.76285e+00  7.57318e+00
       H  6.58218e+00 -3.90291e+00  7.51544e+00
       H -7.16096e+00 -3.40473e+00  7.18050e+00
       O  8.09530e+00 -9.53691e+00  6.11310e+00
       H  8.22128e+00 -9.77819e+00  4.34366e+00
       H  7.96635e+00 -7.92916e+00  7.08576e+00
       O -4.63841e+00 -2.16388e+00  6.15830e+00
       H -4.50754e+00 -1.61940e+00  4.27788e+00
       H -4.16653e+00 -5.69536e-01  6.83726e+00
       O -8.28904e+00  4.69736e+00 -1.33035e+01
       H  7.40562e+00  3.54409e+00 -1.36429e+01
       H -6.64360e+00  3.78390e+00 -1.36296e+01
       O -4.01102e+00  1.22061e+01 -1.31913e+01
       H -5.37559e+00  1.09810e+01 -1.33681e+01
       H -2.37735e+00  1.15069e+01 -1.33370e+01
       O -3.95029e+00  2.20735e+00 -8.94963e-01
       H -4.12881e+00  5.62535e-01 -2.84374e-02
       H -4.33900e+00  2.10141e+00 -2.53292e+00
       O -8.26447e+00  9.51295e+00 -7.75983e-01
       H -7.93200e+00  7.80924e+00 -1.80388e-01
       H -8.61347e+00  9.70239e+00 -2.49719e+00
       O -4.46434e+00  2.57785e+00 -6.29665e+00
       H -6.30426e+00  3.57430e+00 -6.69351e+00
       H -2.82169e+00  3.44626e+00 -6.85571e+00
       O  8.25175e+00  9.91783e+00 -6.28255e+00
       H  6.47633e+00  1.09322e+01 -6.17584e+00
       H -7.25149e+00  1.09774e+01 -6.62785e+00
       O  8.17270e+00  5.24173e+00 -7.65059e+00
       H  8.62643e+00  5.13377e+00 -9.33332e+00
       H  8.45609e+00  7.21825e+00 -7.28170e+00
       O -4.59301e+00  1.25199e+01 -7.68709e+00
       H -4.63085e+00  1.23955e+01 -9.62797e+00
       H -4.76315e+00  1.47602e+01 -7.21122e+00
       O -8.34847e+00  4.75369e+00  6.34592e-01
       H  7.32376e+00  3.69213e+00  3.97979e-01
       H -6.98475e+00  3.56644e+00  4.23163e-01
       O -3.99050e+00  1.21109e+01  6.37296e-01
       H -5.30549e+00  1.10561e+01  4.91840e-01
       H -2.42849e+00  1.09388e+01  4.86449e-01
       O -4.05673e+00  2.07857e+00  1.29690e+01
       H -3.73244e+00  3.01238e-01  1.35007e+01
       H -4.76254e+00  2.17796e+00  1.13906e+01
       O -8.16989e+00  9.47182e+00  1.30647e+01
       H -8.28351e+00  7.45631e+00  1.36391e+01
       H -8.45316e+00  9.52287e+00  1.07760e+01
       O -4.46269e+00  2.52954e+00  7.52815e+00
       H -6.01730e+00  3.52060e+00  7.16834e+00
       H -3.16417e+00  3.64302e+00  7.17189e+00
       O  8.26218e+00  9.93416e+00  7.57639e+00
       H  6.68041e+00  1.09285e+01  7.37410e+00
       H -7.55431e+00  1.10084e+01  7.21288e+00
       O  8.18873e+00  5.24778e+00  6.09656e+00
       H  8.41006e+00  5.56777e+00  4.29241e+00
       H  8.48396e+00  6.95740e+00  6.94319e+00
       O -4.51413e+00  1.25559e+01  6.12113e+00
       H -4.39758e+00  1.25539e+01  4.09322e+00
       H -4.43998e+00  1.43296e+01  7.17436e+00
       O  3.83155e-01 -9.86079e+00 -1.32361e+01
       H -1.25542e+00 -1.11436e+01 -1.29987e+01
       H  1.63823e+00 -1.12099e+01 -1.37046e+01
       O  4.63309e+00 -2.52672e+00 -1.30065e+01
       H  3.23655e+00 -3.67064e+00 -1.34427e+01
       H  6.18693e+00 -3.77533e+00 -1.32641e+01
       O  4.64302e+00 -1.26118e+01 -8.17862e-01
       H  4.45835e+00 -1.46368e+01 -2.53801e-01
       H  4.42480e+00 -1.24103e+01 -2.76313e+00
       O  2.93304e-01 -5.20530e+00 -7.61680e-01
       H  9.02668e-04 -7.11036e+00  9.16547e-02
       H  1.84052e-01 -5.19277e+00 -2.85195e+00
       O  3.94316e+00 -1.20982e+01 -6.27143e+00
       H  2.24984e+00 -1.10596e+01 -6.68706e+00
       H  5.48203e+00 -1.12431e+01 -7.12740e+00
       O -3.40296e-01 -4.79696e+00 -6.22206e+00
       H -1.71853e+00 -3.82646e+00 -6.72673e+00
       H  1.37081e+00 -3.77355e+00 -6.62486e+00
       O -3.05675e-01 -9.62980e+00 -7.67325e+00
       H -7.43354e-02 -9.41125e+00 -9.43433e+00
       H -3.71434e-01 -7.48107e+00 -7.06463e+00
       O  3.89156e+00 -2.19979e+00 -7.69197e+00
       H  4.23822e+00 -2.64492e+00 -9.57845e+00
       H  4.06003e+00 -3.66673e-01 -7.31152e+00
       O  2.23967e-01 -9.97743e+00  6.62744e-01
       H -1.29823e+00 -1.13386e+01 -7.25402e-02
       H  1.67451e+00 -1.07074e+01  2.84186e-01
       O  4.58747e+00 -2.58605e+00  6.93846e-01
       H  3.02223e+00 -4.01446e+00  6.17988e-01
       H  6.34610e+00 -3.59350e+00  2.21127e-01
       O  4.59601e+00 -1.25744e+01  1.31244e+01
       H  4.50510e+00 -1.45401e+01  1.35484e+01
       H  4.03856e+00 -1.22897e+01  1.12339e+01
       O  3.52705e-01 -5.15844e+00  1.31110e+01
       H  8.29972e-02 -6.97114e+00  1.35129e+01
       H  1.59065e-01 -5.30406e+00  1.11140e+01
       O  3.94056e+00 -1.21566e+01  7.50038e+00
       H  2.38634e+00 -1.08104e+01  7.62145e+00
       H  5.26542e+00 -1.07772e+01  7.07134e+00
       O -1.47038e-01 -4.76603e+00  7.58427e+00
       H -1.90837e+00 -3.82384e+00  7.08845e+00
       H  1.31594e+00 -3.56368e+00  7.16312e+00
       O -2.59934e-01 -9.47939e+00  6.13031e+00
       H -1.80848e-01 -9.47611e+00  4.41964e+00
       H -4.80429e-01 -7.63160e+00  6.55284e+00
       O  4.06892e+00 -2.19016e+00  6.07298e+00
       H  4.38955e+00 -2.11372e+00  4.42803e+00
       H  4.23778e+00 -2.33828e-01  6.54447e+00
       O  1.82021e-01  4.75379e+00 -1.30794e+01
       H -1.38505e+00  3.94509e+00 -1.42945e+01
       H  1.68192e+00  3.78393e+00 -1.36310e+01
       O  4.52552e+00  1.20935e+01 -1.31793e+01
       H  3.12455e+00  1.07561e+01 -1.41345e+01
       H  6.14489e+00  1.12229e+01 -1.36549e+01
       O  4.48126e+00  2.25927e+00 -7.60577e-01
       H  4.73996e+00  6.14260e-01 -1.76013e-01
       H  4.01244e+00  2.23771e+00 -2.39328e+00
       O  2.18961e-01  9.46784e+00 -7.82101e-01
       H  5.40805e-01  7.52257e+00 -1.31512e-01
       H  2.79063e-01  9.42445e+00 -2.48630e+00
       O  3.95500e+00  2.61975e+00 -6.17284e+00
       H  2.51800e+00  3.89529e+00 -6.46104e+00
       H  5.22736e+00  3.96240e+00 -6.46329e+00
       O -2.79828e-01  9.97080e+00 -6.30663e+00
       H -1.95854e+00  1.07326e+01 -6.70068e+00
       H  1.27021e+00  1.09399e+01 -6.64490e+00
       O -3.71263e-01  5.17924e+00 -7.72277e+00
       H  1.28982e-01  5.17812e+00 -9.33812e+00
       H -2.37450e-01  7.18453e+00 -6.73160e+00
       O  3.98923e+00  1.26308e+01 -7.75646e+00
       H  4.24164e+00  1.27275e+01 -9.65221e+00
       H  3.95186e+00  1.41296e+01 -6.87221e+00
       O  2.64844e-01  4.77306e+00  6.78912e-01
       H -9.94395e-01  3.50235e+00 -3.30947e-03
       H  1.63588e+00  3.70339e+00  6.45269e-01
       O  4.41706e+00  1.20130e+01  7.20447e-01
       H  2.81517e+00  1.07695e+01  2.21850e-01
       H  6.21411e+00  1.13652e+01  5.04679e-01
       O  4.51166e+00  2.30914e+00  1.30552e+01
       H  4.30024e+00  5.03430e-01  1.36497e+01
       H  4.57396e+00  1.99461e+00  1.11878e+01
       O  2.78469e-01  9.43889e+00  1.29250e+01
       H  1.98962e-01  7.61152e+00  1.37622e+01
       H -1.92636e-01  9.49173e+00  1.11167e+01
       O  3.97560e+00  2.59066e+00  7.61298e+00
       H  2.14816e+00  3.19590e+00  7.15626e+00
       H  5.93099e+00  3.41984e+00  6.94934e+00
       O -2.16402e-01  9.80087e+00  7.75170e+00
       H -1.73008e+00  1.07624e+01  7.30137e+00
       H  1.17038e+00  1.11420e+01  7.30242e+00
       O -3.10827e-01  5.18446e+00  6.02593e+00
       H -2.64600e-01  5.18471e+00  4.04614e+00
       H -9.62359e-02  6.97967e+00  6.69726e+00
       O  4.07367e+00  1.26228e+01  6.09910e+00
       H  4.06648e+00  1.31488e+01  4.29113e+00
       H  3.70079e+00  1.45147e+01  6.66933e+00
192
# CELL(abcABC):   16.99620    29.43815    27.67315    90.00000    90.00000    90.00000  Step:          30  Bead:       6 positions{atomic_unit}  cell{atomic_unit}
       O -8.19383e+00 -1.00100e+01 -1.29850e+01
       H  7.19114e+00 -1.11271e+01 -1.36261e+01
       H -6.64869e+00 -1.12062e+01 -1.38181e+01
       O -3.96863e+00 -2.62542e+00 -1.31315e+01
       H -5.34571e+00 -3.66668e+00 -1.37271e+01
       H -2.45742e+00 -3.51461e+00 -1.36978e+01
       O -3.99339e+00 -1.25215e+01 -8.76957e-01
       H -3.88355e+00 -1.44235e+01  1.38302e-02
       H -4.30949e+00 -1.29191e+01 -2.63478e+00
       O -8.23948e+00 -5.13369e+00 -7.75330e-01
       H -8.54960e+00 -7.00876e+00 -1.24453e-01
       H -8.71090e+00 -4.84350e+00 -2.56899e+00
       O -4.43779e+00 -1.22467e+01 -6.23164e+00
       H -5.99852e+00 -1.10106e+01 -6.73704e+00
       H -2.87766e+00 -1.13446e+01 -6.90861e+00
       O  8.27360e+00 -4.67056e+00 -6.32728e+00
       H  6.74583e+00 -3.35502e+00 -6.76345e+00
       H -7.06025e+00 -3.95294e+00 -6.63283e+00
       O  8.19418e+00 -9.56729e+00 -7.60106e+00
       H  8.26515e+00 -9.23016e+00 -9.45314e+00
       H  7.97082e+00 -7.88628e+00 -7.42778e+00
       O -4.61141e+00 -2.14476e+00 -7.64708e+00
       H -4.19263e+00 -2.17869e+00 -9.57037e+00
       H -4.84735e+00 -2.16525e-01 -7.06504e+00
       O -8.34638e+00 -9.94372e+00  6.79689e-01
       H  7.09226e+00 -1.10862e+01  3.32131e-01
       H -6.89620e+00 -1.09908e+01  8.50262e-03
       O -3.90504e+00 -2.61090e+00  7.83042e-01
       H -5.41340e+00 -3.67592e+00  2.08222e-01
       H -2.53012e+00 -3.80982e+00  2.16494e-01
       O -3.93720e+00 -1.25417e+01  1.30589e+01
       H -4.23664e+00 -1.43934e+01  1.36471e+01
       H -4.12392e+00 -1.28672e+01  1.10848e+01
       O -8.20121e+00 -5.23460e+00  1.29863e+01
       H -7.92051e+00 -6.95051e+00  1.34740e+01