192
# CELL(abcABC):   16.99620    29.43815    27.67315    90.00000    90.00000    90.00000  Step:           0  Bead:       2 velocities{atomic_unit}  cell{atomic_unit}
       O -9.59742e-05 -1.80096e-03 -1.09320e-03
       H  3.48702e-03 -5.32626e-03  1.81433e-03
       H  1.50164e-03 -2.89181e-03 -4.39124e-03
       O  6.26792e-04  1.00697e-03  8.46490e-04
       H -5.56581e-03 -1.00056e-03 -4.37386e-03
       H  1.23592e-04  3.20054e-06 -6.46154e-03
       O  8.09222e-04 -1.29470e-03 -9.13015e-04
       H  7.86254e-04  2.93305e-03 -2.01080e-03
       H -3.40275e-03  1.48437e-03 -1.66055e-04
       O  5.32731e-05  9.92824e-04 -2.31510e-04
       H -2.07613e-03 -5.77196e-03 -8.21367e-03
       H  2.68735e-03  7.29590e-03  3.59710e-03
       O -3.75391e-04  4.19720e-04 -9.12514e-04
       H -2.27525e-03 -1.22716e-03  4.63454e-04
       H  4.25959e-03  1.14803e-03  6.45728e-05
       O -6.81529e-04 -7.97345e-04 -2.36392e-03
       H -2.67675e-03  7.15907e-03 -4.87809e-04
       H -4.59807e-03  4.68781e-03 -2.49267e-03
       O -2.88799e-03  5.46622e-04 -8.34331e-04
       H -3.07898e-03 -5.22584e-03 -3.14358e-03
       H  2.64654e-03 -1.94020e-03 -4.62222e-03
       O  1.24234e-03 -6.91174e-05 -6.22694e-04
       H  1.36890e-03  7.17058e-05  1.60163e-03
       H -3.02435e-03  1.31495e-03  4.60116e-03
       O -1.36991e-03  2.94725e-04  1.05171e-03
       H  9.81532e-04  1.93446e-03  5.36776e-03
       H -5.14720e-03  3.94434e-03 -2.66399e-03
       O  6.15531e-04  6.51954e-04  9.58688e-04
       H  1.92708e-03 -2.08062e-03 -1.67940e-03
       H  3.54897e-03 -1.54160e-03 -8.15349e-04
       O -5.26522e-04 -1.77936e-04  1.06544e-03
       H -3.36601e-03 -8.46502e-04  2.04335e-04
       H  1.13234e-03 -3.40968e-03  3.74646e-03
       O  6.58217e-04  7.53086e-04 -3.77589e-05
       H -3.73995e-03  2.71604e-03 -6.15457e-03
       H  2.96765e-03 -3.52005e-03  6.70718e-04
       O  1.02608e-03 -5.51370e-04  1.64749e-04
       H  1.78516e-03  3.71812e-03 -2.27794e-03
       H  6.55530e-03  1.45760e-03  5.73560e-03
       O -8.88828e-04  1.21540e-04 -9.44245e-05
       H  1.66187e-03  2.07109e-04 -3.19081e-03
       H -6.27014e-03 -3.29230e-03  3.33338e-03
       O -1.70264e-04  1.22995e-03  3.93388e-04
       H  3.58101e-04 -9.55239e-04 -1.12684e-03
       H  1.22103e-03  8.56859e-04  4.88205e-04
       O -1.10174e-03 -4.76812e-04 -1.18597e-04
       H  1.96515e-03 -1.15471e-03  5.33116e-03
       H  4.70872e-04  7.87713e-03 -2.02620e-03
       O -4.09698e-04 -4.62130e-04  6.68969e-04
       H -1.01676e-03  7.64712e-04  2.12159e-03
       H  5.55767e-03  5.55019e-04  2.58346e-03
       O -4.68679e-04  4.69297e-04  2.01341e-04
       H  9.14556e-04  1.56832e-03 -3.96771e-03
       H -3.39563e-03 -2.93390e-03 -6.58498e-03
       O -4.30178e-04 -9.09923e-04  5.47220e-04
       H -6.30627e-03  2.65359e-03 -4.86673e-04
       H -1.18380e-03  6.61588e-04 -6.27715e-05
       O -2.27766e-04 -4.44391e-04 -6.06948e-04
       H  5.75214e-03 -9.24207e-04  1.66436e-03
       H -8.15313e-03 -2.42177e-03  5.61669e-06
       O  1.46039e-04  1.64549e-03  8.33081e-04
       H  3.83742e-03  9.18815e-04 -8.14193e-04
       H -4.01304e-04 -6.85957e-04 -7.30890e-04
       O -8.68929e-04  2.31369e-04  1.70855e-03
       H -1.43264e-03 -3.61165e-03 -2.39081e-03
       H  1.51188e-03 -1.48837e-04  5.38302e-04
       O  1.60621e-04  9.65338e-04  8.85077e-05
       H  5.80236e-03  8.47183e-03  4.46962e-03
       H  7.85572e-04  1.42346e-03 -9.58412e-03
       O  1.29484e-03 -5.77993e-04  6.24701e-04
       H -5.15071e-03  3.88952e-03  1.65862e-03
       H -1.37065e-04 -1.66461e-04  4.70854e-04
       O -1.72430e-03  8.95518e-04  8.49668e-04
       H  1.42289e-03 -5.94278e-03  3.21651e-03
       H -3.57234e-03  8.93864e-04 -5.80459e-03
       O  5.61116e-04 -7.56487e-04  8.91843e-05
       H  4.53661e-04 -1.35764e-03  7.76315e-03
       H -3.97536e-03  4.87012e-03 -1.73321e-03
       O -1.53159e-04 -6.63711e-05 -9.00106e-04
       H -3.67833e-03  1.60351e-03  3.29934e-04
       H -5.76549e-03 -5.41481e-03 -3.00063e-03
       O -1.11929e-03  1.18593e-03 -1.78542e-03
       H -4.15952e-03 -5.48857e-03  1.53938e-03
       H  7.52171e-04 -1.48205e-03 -4.98255e-03
       O -5.50865e-04  1.46369e-03 -1.42931e-03
       H -3.69926e-03 -2.67838e-03  1.56673e-03
       H -2.29225e-03 -1.00711e-03  7.34140e-04
       O -2.17196e-04 -5.32992e-04 -1.13855e-03
       H  6.34205e-04  4.65664e-03  3.14542e-03
       H  1.22176e-03  4.93470e-04  2.62022e-03
       O -3.43838e-04  1.32503e-03 -3.84677e-04
       H  6.81601e-03  5.93924e-03  4.17360e-04
       H  5.19365e-03  3.20254e-03  7.33866e-03
       O -6.86125e-04  1.68607e-04  5.13005e-04
       H -1.87534e-03 -1.18660e-03 -9.23732e-03
       H  4.42884e-03  3.29883e-03  3.90987e-03
       O  2.99965e-04  1.26771e-03  9.82160e-05
       H  2.63450e-03  4.43255e-05 -1.47642e-03
       H  7.87531e-04  4.34702e-04 -2.12741e-04
       O  9.57465e-04  2.50099e-04  2.81875e-04
       H  3.78258e-03 -1.88953e-03 -1.65468e-03
       H  1.09860e-03  6.05673e-03  4.12706e-03
       O -6.13626e-04  9.07846e-04 -4.21686e-04
       H -7.37285e-04  8.33067e-04 -1.40668e-03
       H  3.95377e-03  1.04042e-03  2.71767e-03
       O -2.58945e-04  3.38836e-04  1.71221e-03
       H  1.24076e-03 -2.82926e-03  9.52914e-04
       H -2.28810e-03 -6.62988e-04  1.46596e-03
       O -3.81300e-04  1.01736e-03  7.13773e-04
       H  1.75632e-03  6.17818e-03  2.75572e-03
       H  1.15796e-03 -4.78775e-04  1.49369e-03
       O  3.04362e-04  3.67799e-04  8.21548e-04
       H  1.86727e-06 -7.20338e-03  3.46032e-03
       H  2.25299e-03  2.07295e-03  6.35993e-03
       O -1.71500e-04 -5.79970e-04 -6.75045e-04
       H  8.18166e-04 -4.79074e-03  6.69743e-04
       H -6.23243e-03  5.24278e-03 -2.06188e-03
       O -8.44920e-04  5.06651e-04  2.51710e-04
       H  5.72312e-03 -3.73158e-04  2.68856e-03
       H  3.66647e-03 -4.25365e-03  3.18820e-03
       O -2.17310e-04 -2.39414e-04  4.82086e-04
       H  5.17826e-03  1.56561e-03  2.98708e-03
       H -1.49802e-03 -5.14110e-03 -1.81906e-03
       O -8.68967e-04  1.26620e-03  6.92812e-04
       H  2.51609e-05 -3.73767e-03  2.68877e-03
       H  1.44802e-04  4.66776e-04  4.00667e-03
       O  1.50440e-04  3.77244e-04  2.14330e-03
       H -4.96943e-03 -3.22622e-04  1.13157e-04
       H -2.24436e-03  4.53455e-03 -1.77574e-03
       O  1.39303e-04  1.30122e-03  9.71265e-05
       H -3.11092e-03  4.59699e-04 -7.51826e-03
       H -2.11377e-03  1.75068e-03 -5.32847e-04
       O  7.39368e-04  1.41545e-03 -9.80425e-04
       H  2.11866e-03  1.01021e-03  7.37451e-03
       H -9.40184e-03  2.45943e-03  1.13423e-03
       O -2.40055e-04 -6.51306e-04 -3.63340e-04
       H -5.64472e-03 -7.35539e-04 -2.80561e-04
       H  4.92374e-04 -3.27001e-03  4.39639e-04
       O -6.52225e-04 -6.58254e-05  1.90292e-04
       H  8.88385e-03  8.25236e-04  4.03690e-03
       H -7.57701e-04 -2.06641e-03  2.18531e-03
       O  8.67206e-04  6.69942e-04  3.14441e-04
       H -2.90992e-03  1.95771e-03  4.20926e-03
       H  2.02920e-03  1.83535e-03  8.51661e-04
       O  3.68535e-04 -1.24191e-03 -1.06547e-04
       H  5.14198e-03 -1.70535e-03 -3.62879e-03
       H -5.16747e-03 -1.74880e-03  9.45465e-04
       O  8.69467e-04 -2.35603e-04  6.01250e-04
       H -2.25812e-03 -1.41256e-03 -1.07352e-02
       H  1.60621e-04  6.51458e-03  1.91977e-03
       O  1.15103e-04  8.08747e-04 -1.39409e-03
       H  3.27902e-03 -3.66531e-04  2.90775e-03
       H -2.62158e-03 -1.55966e-03  9.13632e-04
       O  1.17955e-03 -1.61712e-03  8.46797e-04
       H -1.94132e-03 -7.44755e-03  6.69359e-04
       H  2.52963e-03 -4.72515e-04  1.17443e-03
       O -5.47402e-04  1.39309e-04  1.11927e-04
       H -1.66358e-03 -5.52934e-03 -6.49349e-03
       H  2.24471e-03 -3.62999e-03  3.67573e-03
       O -2.52274e-04  2.65148e-04 -2.46583e-04
       H  1.25229e-03 -1.36488e-03 -6.45478e-05
       H -5.90498e-03 -5.19525e-03 -5.50012e-03
       O -2.22480e-04 -7.64117e-04  1.72344e-04
       H  4.05251e-03  1.04518e-02 -5.27492e-03
       H -2.26900e-03 -9.14990e-04 -9.34238e-03
       O  6.39279e-04  5.16178e-04 -7.05251e-04
       H  2.74015e-03 -3.21201e-03 -3.24424e-03
       H  1.30282e-03  7.39217e-03  7.91907e-04
       O  2.13779e-03  1.11197e-03 -2.96058e-04
       H  2.88956e-03  1.74178e-03 -1.31910e-03
       H -6.36312e-04  5.18394e-03  7.44503e-03
       O -1.30992e-04  4.27480e-04  9.92295e-04
       H -1.99677e-04 -2.50034e-03  4.67840e-03
       H  3.11972e-03  1.90573e-03  2.38154e-03
       O -7.38158e-04  2.61803e-04  8.80481e-04
       H  1.06460e-03  4.82535e-03  4.85126e-03
       H  1.72411e-04 -7.74852e-04 -4.19697e-05
       O  9.73750e-04 -7.85937e-04 -1.05160e-03
       H  3.53302e-03 -1.25297e-03  1.18203e-03
       H -5.24492e-03  5.21409e-03 -1.51319e-03
       O -3.07541e-04  7.59124e-04  6.32708e-04
       H -1.35210e-03 -2.94828e-03  5.02986e-03
       H  2.36081e-03 -1.77503e-03 -3.59698e-03
       O -9.34450e-04 -3.72376e-04  6.65384e-04
       H  2.93853e-03 -1.00601e-03  2.79059e-03
       H -4.61631e-03  2.82984e-04 -1.15345e-03
       O -1.10552e-03  6.35755e-05  3.63365e-04
       H -3.28471e-03  3.29009e-04  3.77202e-03
       H  3.04754e-03 -2.58085e-03 -2.62962e-03
       O  1.86513e-04  6.21663e-04  2.04544e-04
       H  5.30769e-04 -5.08099e-04  4.98130e-03
       H  4.93799e-03  5.58133e-03 -6.92669e-03
192
# CELL(abcABC):   16.99620    29.43815    27.67315    90.00000    90.00000    90.00000  Step:          10  Bead:       2 velocities{atomic_unit}  cell{atomic_unit}
       O  1.01495e-03 -1.56439e-03 -5.54606e-04
       H -8.83510e-05  5.75509e-03 -5.65893e-05
       H -2.11859e-03 -9.06024e-04 -8.20465e-04
       O -8.89068e-05  6.51770e-04 -3.91186e-04
       H -9.64190e-04 -5.65545e-05  6.05384e-03
       H  2.48685e-03 -1.23863e-03 -2.13498e-03
       O  6.14193e-04 -1.22342e-03 -1.78313e-04
       H  4.43155e-04  3.67083e-03  2.14113e-03
       H -3.33482e-03  1.22371e-03  3.43569e-03
       O -4.80072e-04  6.96759e-04  7.47243e-04
       H -2.19993e-03 -1.70368e-03 -3.13786e-03
       H -7.65214e-04 -5.84132e-03 -9.22898e-04
       O  7.10175e-04 -3.36249e-04 -5.82546e-04
       H -2.14036e-03 -1.46713e-03 -7.00696e-03
       H -3.13013e-03  5.76135e-03  1.56169e-03
       O -1.28098e-03  4.34642e-05  1.18821e-06
       H -7.08095e-04 -3.74419e-04 -5.86017e-03
       H  7.24182e-04  1.00558e-03  1.04485e-03
       O  1.39556e-03  9.90577e-04 -3.27003e-05
       H -6.14442e-03  4.12676e-03  2.71667e-03
       H -3.95294e-03 -1.62303e-03  1.82526e-03
       O -4.39631e-04  2.66793e-04  8.13105e-04
       H  6.27702e-03 -1.69538e-03  4.03742e-03
       H -2.20275e-03  1.61601e-03  1.91393e-03
       O  6.06878e-04  1.67971e-04 -1.74411e-04
       H  9.45381e-04 -5.60603e-03 -4.79449e-03
       H -7.12678e-03 -3.74155e-03 -2.42014e-03
       O  5.23120e-04  5.74783e-05 -9.44589e-05
       H  3.69878e-03 -5.05104e-03  2.29388e-03
       H -9.92323e-03  1.95368e-03  1.40359e-03
       O  2.03415e-03 -8.77043e-04 -9.78164e-04
       H -6.14795e-03 -3.09614e-04  3.59503e-03
       H  2.81237e-03 -1.95024e-03  3.75187e-03
       O  4.25248e-04 -3.25522e-04 -9.21545e-04
       H  1.41423e-03 -3.23705e-03  4.20516e-03
       H  5.90343e-03 -3.21729e-03 -3.92843e-03
       O  8.05954e-04 -7.77255e-04 -6.34189e-04
       H  3.46521e-03  5.86704e-03  2.03949e-04
       H  7.87499e-04 -9.24942e-04 -1.30968e-03
       O  5.82966e-04 -1.86623e-05 -9.28480e-04
       H -1.17219e-03  7.17579e-05  8.33210e-03
       H  7.53250e-03 -1.32387e-03 -2.29035e-03
       O  4.18406e-04  1.82272e-04  4.79550e-04
       H -3.93081e-04  3.96155e-03 -6.60715e-03
       H  3.91185e-03  9.59975e-04 -4.90498e-03
       O  3.69172e-04  1.03541e-03  6.40556e-05
       H  9.10219e-04  6.78903e-04  6.43047e-03
       H -1.42379e-03 -2.52234e-03 -1.89686e-03
       O  9.07339e-05  2.20695e-04 -1.53522e-04
       H -3.34395e-03 -5.11769e-03 -3.17079e-03
       H  1.91933e-03 -9.09251e-04 -5.80580e-04
       O  9.46601e-04  9.44335e-04  8.97188e-04
       H -4.96179e-03  2.09268e-03 -1.26320e-03
       H  2.25485e-03 -5.95909e-03  1.98682e-03
       O -8.18868e-04 -3.55603e-04  6.53260e-04
       H -2.21165e-03 -2.57392e-03 -3.81958e-03
       H -2.10857e-03  1.55595e-03 -7.04187e-03
       O -3.74559e-04  3.69710e-04  3.31595e-04
       H -2.51060e-03  1.42211e-03  2.32410e-03
       H  2.70181e-03  8.10128e-04  1.16521e-03
       O  1.61138e-04 -1.93553e-03  2.49366e-04
       H -3.98846e-03  2.86470e-04  1.55680e-03
       H  4.51564e-05 -4.45273e-03 -6.83792e-03
       O  6.70677e-04 -1.68155e-03 -1.02126e-03
       H -4.68219e-05 -3.98870e-03  4.95395e-05
       H -8.00452e-03  5.73288e-03  3.45047e-03
       O  8.08521e-04  5.95213e-04 -5.92349e-04
       H -7.72467e-03 -2.32672e-03  3.65542e-03
       H  1.32355e-03  2.28601e-03 -4.28488e-03
       O -1.54789e-03 -2.41016e-04  4.66708e-04
       H -1.99221e-03 -1.44286e-03 -5.93859e-03
       H  2.99653e-03 -2.72553e-03 -4.70706e-04
       O -2.14769e-03  9.07981e-05 -1.63951e-03
       H -4.99978e-03 -5.14753e-03 -7.85491e-03
       H -7.52462e-04 -1.61964e-03 -1.79887e-03
       O -1.08350e-03 -3.74546e-04 -3.49094e-04
       H  9.95771e-04  3.11691e-03  3.17931e-03
       H  5.50676e-03  1.39892e-03  5.05476e-03
       O -3.11792e-04 -6.89054e-04  1.25147e-04
       H  5.15351e-03 -3.13020e-04  3.89673e-03
       H  4.13051e-03  1.15451e-02 -9.91256e-04
       O -7.75356e-04  1.37983e-03  1.26349e-03
       H -3.94317e-04  1.62793e-03  3.68404e-04
       H  1.55397e-03  4.16247e-03 -3.73122e-04
       O  1.27600e-03  5.00979e-04  2.64152e-04
       H  3.00813e-03  8.64996e-04  8.26845e-04
       H  2.04965e-03 -3.59615e-03  3.74002e-03
       O -2.33504e-05  2.97850e-04  8.43187e-04
       H -4.63698e-03  2.63529e-03 -5.43231e-03
       H -2.89158e-03  1.57486e-03  4.06709e-03
       O -3.42009e-04 -7.99491e-05 -5.22665e-04
       H  2.27920e-03 -4.90859e-03  5.09039e-03
       H  8.69870e-04 -1.86227e-03  7.95068e-04
       O  3.48712e-04 -1.62647e-04  5.34548e-04
       H  4.75450e-03  1.33931e-03 -3.98293e-03
       H  4.84871e-04 -2.09608e-03 -8.97069e-04
       O  2.43544e-04  1.79194e-03 -1.95201e-06
       H  2.05051e-03  9.76943e-05  2.91487e-03
       H  7.14233e-03  5.85899e-04 -4.70149e-03
       O  4.97452e-04 -1.09634e-03  3.82503e-04
       H  1.37581e-03 -6.66243e-03  1.56005e-03
       H -2.90874e-03 -3.03134e-03 -2.71469e-04
       O  3.46393e-04 -8.22910e-04  1.03390e-03
       H -4.97435e-04 -3.25807e-03  2.52428e-03
       H  9.36686e-05  5.79060e-03 -4.82620e-04
       O -4.77985e-05 -5.24839e-04  1.21081e-03
       H -2.91882e-03  2.20172e-03  2.54921e-03
       H  9.86902e-04 -2.27600e-03  1.59944e-03
       O -2.28981e-04  1.13956e-03  3.00901e-04
       H -1.81982e-03  2.60791e-04  3.51622e-03
       H  1.24104e-06 -1.80214e-03 -2.79705e-03
       O  1.20255e-03  6.02093e-04 -8.80431e-05
       H  8.83809e-04  2.20067e-03 -8.09744e-03
       H -7.91825e-04  1.64839e-03  3.83769e-03
       O -1.22203e-03  1.28085e-03  8.15932e-04
       H -1.94886e-03 -4.89658e-03 -1.66721e-04
       H -4.73113e-03  6.47101e-03  4.56818e-04
       O  1.12089e-04  7.84197e-04 -1.03317e-03
       H  5.49402e-04 -8.23664e-03  3.56556e-03
       H  9.43211e-03  3.41475e-03  4.34320e-03
       O  6.21459e-04 -3.07815e-04  8.27917e-04
       H -2.05434e-03 -5.61385e-03 -2.04771e-03
       H -1.62439e-03 -2.46808e-03 -2.97726e-04
       O -2.52375e-04 -3.89475e-04 -1.90134e-03
       H  3.67929e-04 -1.13278e-04  7.02900e-03
       H -7.54745e-04  2.32923e-03  1.81494e-03
       O -9.01713e-04 -1.16644e-04 -3.93471e-05
       H  6.35306e-04 -2.58577e-03  2.97561e-03
       H  2.68560e-03 -2.17146e-03  3.91263e-03
       O -2.98380e-04  1.18307e-04 -1.11546e-04
       H -7.73500e-03  2.92633e-04 -2.28101e-05
       H  5.84374e-03  1.17551e-03 -5.77450e-03
       O -1.34111e-03  2.97911e-04  1.01955e-03
       H -1.47240e-03  2.24429e-03  5.79599e-04
       H -1.98115e-03  9.39480e-04  2.90057e-03
       O -5.54237e-04 -1.06397e-03 -1.01627e-03
       H -2.50950e-03 -2.25442e-03 -1.58319e-03
       H -1.95887e-03  8.99280e-04 -5.37447e-03
       O  5.12323e-04 -1.25655e-03  8.15197e-04
       H -3.23229e-03  6.28590e-03  6.29390e-04
       H -7.00713e-04 -3.45256e-03  1.07193e-03
       O  1.00343e-03  1.12134e-03 -1.73170e-03
       H  2.91121e-03  6.31516e-03 -5.10664e-03
       H  1.32703e-03 -6.05637e-03  1.01327e-02
       O  8.33881e-04 -3.28746e-04 -1.54407e-04
       H -3.79020e-03 -1.26457e-03  1.16617e-03
       H  2.19782e-03 -3.07385e-03  2.65547e-03
       O -7.01337e-04 -8.29305e-04  7.30066e-04
       H  6.25885e-03 -5.67052e-03 -1.20508e-03
       H  3.51429e-03  4.56433e-03 -6.38539e-03
       O  2.57550e-04 -1.94062e-04 -3.39561e-04
       H  8.00805e-04  6.16072e-03 -2.35532e-03
       H  1.18096e-03  2.77465e-03 -4.26934e-03
       O -1.45183e-03  1.03193e-04 -1.20353e-03
       H  1.38405e-03 -3.14538e-03 -1.02293e-03
       H -8.70252e-03 -2.03954e-03  4.43975e-04
       O  7.98936e-05  7.82468e-05  1.66026e-03
       H  3.18362e-03  4.25063e-03  5.18404e-03
       H -2.51998e-03  5.74395e-03 -5.65243e-03
       O  4.50562e-04 -1.27442e-03 -1.52769e-03
       H -1.76712e-03 -8.25655e-04 -5.05216e-03
       H -1.67842e-03  1.54775e-03 -3.03809e-03
       O  2.00239e-03  1.36807e-03 -7.48657e-04
       H -4.55790e-03  2.28829e-03  1.87097e-03
       H  4.88305e-04 -3.92136e-03  9.10858e-04
       O -6.58039e-04 -2.33586e-04  1.22287e-03
       H  1.43080e-03  1.07610e-03 -4.42279e-03
       H  4.30137e-04  3.88666e-03  3.50150e-03
       O -1.61991e-03 -1.60191e-04  4.14184e-04
       H  7.05597e-04 -6.36382e-03 -3.13760e-03
       H -5.90061e-03  1.22944e-03 -3.91551e-03
       O -2.43943e-04 -1.08150e-04  5.33929e-04
       H -3.15212e-03 -3.02568e-03 -2.18953e-03
       H  5.24709e-04  4.40370e-03  2.93714e-03
       O  8.96996e-04 -1.56678e-04  1.33360e-03
       H -2.64120e-03 -1.56131e-05  1.19068e-03
       H  2.59426e-03  1.37065e-03 -4.35361e-03
       O -1.53295e-03  2.18024e-04  7.17502e-04
       H  5.19639e-03 -7.38327e-04 -2.82113e-03
       H  2.98089e-04 -1.89726e-03  5.34838e-03
       O -3.37984e-04 -5.16022e-04 -8.89381e-04
       H -7.76413e-05  3.60337e-03 -4.31050e-04
       H  6.33416e-03 -1.85850e-03  1.01314e-04
       O  1.71536e-05 -4.67647e-04 -7.67485e-04
       H -8.29955e-04  9.42184e-04  4.68685e-03
       H -6.86525e-03 -7.76448e-03 -3.76900e-03
       O -5.48657e-04  7.43653e-06  8.71791e-04
       H  3.87289e-03  6.60345e-04 -1.12188e-03
       H  8.43614e-03  8.48277e-03  3.47314e-03
       O  8.26946e-04  1.65864e-03 -1.11049e-03
       H -7.36792e-04 -6.43468e-04  8.51981e-03
       H  3.43847e-03 -1.36542e-03  4.92394e-03
192
# CELL(abcABC):   16.99620    29.43815    27.67315    90.00000    90.00000    90.00000  Step:          20  Bead:       2 velocities{atomic_unit}  cell{atomic_unit}
       O -7.92167e-04 -4.27682e-04 -3.63203e-04
       H -1.63058e-03  6.19987e-04  6.82565e-04
       H  7.80414e-04 -3.04512e-03 -2.19295e-03
       O -4.12517e-04  2.60287e-04 -9.56179e-04
       H  5.04312e-03 -4.21969e-03 -1.13728e-03
       H -3.79050e-04  9.14642e-03 -1.76402e-03
       O -9.51467e-04 -6.05429e-05 -6.12570e-04
       H -3.24587e-03 -2.60895e-03  8.04219e-03
       H -1.49096e-03 -3.91818e-03 -2.69972e-03
       O -6.43835e-04 -6.75712e-04  3.48257e-04
       H  2.80775e-03 -2.57324e-03  1.43499e-03
       H -9.39572e-04 -1.05156e-03  6.33154e-03
       O  8.41697e-04  1.29059e-03 -3.62621e-04
       H  5.58986e-03  3.14968e-04  3.19196e-03
       H  1.13191e-04  6.02961e-03  1.50242e-03
       O  3.19640e-04  9.74255e-04 -6.70899e-05
       H  2.06253e-04  2.35487e-03 -1.22819e-03
       H  3.87123e-03 -3.25181e-03  3.56263e-03
       O -7.33959e-04 -6.22081e-04  3.79217e-04
       H -4.36022e-03 -4.54710e-03 -1.49709e-03
       H -3.00248e-03  2.36957e-03 -1.71509e-03
       O -2.75226e-04 -4.63337e-04  1.42812e-04
       H -6.90064e-03  8.92480e-03 -1.89406e-03
       H -9.87160e-04  2.67577e-03  6.96167e-04
       O -1.46395e-03  6.80059e-04 -6.63921e-05
       H -8.26900e-04 -1.67748e-03  3.15542e-03
       H  2.96110e-03  3.90018e-03  2.98414e-03
       O -1.26581e-03  6.87958e-04  6.47221e-04
       H -1.19445e-03  4.13754e-03 -4.68560e-04
       H -1.31389e-03  4.57199e-03 -2.98328e-03
       O -1.21070e-03  2.67774e-03  1.45210e-03
       H  3.82477e-04  2.99523e-03  6.67795e-03
       H -1.42502e-03 -5.77070e-03 -4.11136e-03
       O  2.00963e-03 -1.32257e-03 -5.71535e-04
       H  2.09101e-03 -2.42691e-04 -3.27559e-03
       H  2.34875e-03  1.39092e-03  3.59637e-03
       O -1.00378e-03 -1.60100e-03  1.95306e-03
       H -1.40963e-03  2.75757e-03 -7.49860e-04
       H  1.63982e-03 -5.02702e-03  2.87709e-03
       O -8.04462e-04 -4.36769e-04 -5.30602e-04
       H  4.31553e-03  5.19628e-03 -4.47097e-03
       H  4.48776e-04 -1.77545e-03 -2.52681e-04
       O -7.55177e-04  6.26143e-04  7.09699e-04
       H  2.51577e-03  3.41830e-03 -2.84314e-03
       H -2.72847e-03 -1.07572e-03 -6.04490e-03
       O -7.05210e-05 -5.71529e-04  4.56613e-04
       H -5.04432e-03 -4.51473e-03 -2.04142e-03
       H  3.31161e-03 -4.47861e-03  5.16758e-03
       O  7.47019e-04 -7.84989e-04 -4.44065e-05
       H  3.84995e-03 -4.74520e-03  2.28736e-04
       H  1.23616e-04 -2.73176e-03 -2.14291e-03
       O -1.24844e-03  7.40020e-05 -5.69203e-04
       H -1.98902e-03  2.02338e-03  3.48025e-03
       H  4.46592e-03 -3.03828e-03  2.36719e-04
       O  2.01892e-04  3.09420e-05 -3.79151e-04
       H  1.04854e-03 -3.26815e-03 -8.45821e-04
       H -4.18758e-03  7.26828e-04  4.54854e-04
       O -2.40995e-05 -1.07718e-03 -2.45815e-04
       H  5.21443e-03 -7.56670e-03  5.72201e-04
       H -2.37153e-03 -2.64021e-04  7.88622e-03
       O  6.17367e-04  1.86341e-04  7.14333e-04
       H -3.44914e-03 -3.83285e-03  2.38188e-03
       H -4.01115e-04  2.59436e-03  1.11846e-03
       O -6.48682e-04 -6.13877e-04  1.44138e-03
       H  3.63567e-03 -2.91890e-03  4.07790e-03
       H -5.40406e-03  3.35448e-03 -1.01069e-05
       O -3.96674e-04  5.21531e-04 -4.09134e-04
       H -1.27832e-03 -4.00648e-03  2.21245e-03
       H -1.89799e-03  6.01409e-04  2.41106e-03
       O -3.87399e-04  2.07471e-05  3.92832e-05
       H -2.80684e-03  2.41599e-03  2.91747e-03
       H  2.22054e-05 -1.52472e-04  8.79519e-03
       O -3.54565e-04  2.58101e-04 -1.08661e-03
       H -1.64642e-03  1.12553e-03 -5.43361e-03
       H -2.80254e-04  2.99667e-04  1.46225e-04
       O -1.25147e-04 -1.42975e-03 -2.26009e-04
       H -1.38421e-03 -2.00351e-03  3.98610e-03
       H  1.62909e-04 -1.03266e-03  7.32834e-03
       O  6.31683e-04  5.04321e-04 -3.23735e-04
       H  8.96542e-04  6.92335e-04 -6.20527e-05
       H -1.77283e-03 -2.40374e-04 -2.06411e-03
       O  7.96671e-04 -1.11697e-03 -9.78385e-04
       H  1.46452e-03  3.20410e-03  6.23403e-04
       H -2.54398e-03  2.67185e-03 -7.45935e-04
       O  4.81571e-04 -2.92922e-04 -1.07841e-03
       H -1.24151e-04  2.75380e-04 -1.09357e-03
       H  6.44811e-03  3.54511e-03  1.34234e-04
       O  4.65373e-04 -1.13500e-04  1.48665e-04
       H  4.50216e-03  4.82520e-04  3.85676e-03
       H  2.04976e-03  6.08799e-04  2.06279e-05
       O -1.23276e-03 -8.16320e-04 -1.47786e-04
       H  5.17353e-03 -2.09177e-03 -1.89865e-04
       H -2.12711e-04 -5.67834e-04 -2.78597e-03
       O -1.82726e-04 -1.10291e-04 -4.25911e-04
       H  1.22095e-03  1.60442e-03  4.36896e-03
       H  6.76250e-03 -3.75993e-03  5.36922e-03
       O -4.26492e-04  5.07264e-04 -3.75452e-04
       H -5.57521e-04  3.80058e-03 -4.23111e-03
       H -3.11160e-03  2.05255e-03 -4.82995e-04
       O -4.34275e-04  2.41458e-04 -4.08416e-04
       H  4.39022e-04  4.93160e-03 -2.77132e-03
       H -3.05994e-03  1.09119e-03 -2.18158e-04
       O -1.08175e-03 -9.85854e-04 -4.64128e-04
       H  3.56818e-03 -5.92998e-03 -1.49023e-02
       H  5.40220e-03  5.53008e-03 -4.15678e-03
       O  1.22173e-04 -2.89330e-04  2.12003e-04
       H  2.64077e-03 -1.85077e-03  4.54371e-03
       H -3.86284e-03  4.08395e-03  1.98739e-03
       O -7.20967e-04  1.98159e-04  3.38737e-04
       H  3.82012e-04 -2.47643e-03 -3.24965e-03
       H  3.18881e-03 -1.60564e-03 -7.21984e-04
       O  3.93504e-04  2.10455e-04 -1.55332e-03
       H  8.54653e-03 -5.52820e-03 -2.36059e-03
       H  3.53410e-03 -7.90530e-03 -5.24394e-04
       O  1.39018e-03 -5.86141e-04  2.73243e-04
       H -2.62034e-03  6.64526e-04 -1.65136e-03
       H  3.79870e-04 -3.94003e-03  2.28306e-03
       O -2.01753e-03  1.32501e-05  1.75198e-03
       H  2.53642e-03  1.27343e-03 -8.96168e-03
       H -3.27022e-03 -6.18772e-03  4.63465e-03
       O -4.18060e-04 -1.14755e-04 -1.38325e-04
       H -3.27878e-03 -3.21593e-03 -4.69339e-03
       H -4.27335e-03 -3.87357e-03  3.91056e-03
       O -6.24707e-04 -1.69370e-03  7.87737e-04
       H -4.82218e-03 -3.93987e-03  3.46627e-04
       H  2.89912e-04 -6.25606e-04 -5.95121e-04
       O -3.18784e-04 -9.56817e-05 -2.38325e-04
       H -2.66673e-03  3.15409e-03 -6.64414e-03
       H  4.54589e-03 -3.01146e-03 -8.27337e-05
       O  1.64230e-04 -3.51829e-04  1.57868e-03
       H -1.23212e-03 -1.12467e-03  4.65823e-03
       H -1.73599e-03 -3.37237e-03  3.55308e-03
       O  4.20824e-04 -5.05302e-04 -8.41032e-04
       H  3.51920e-04  8.49136e-03 -3.02179e-03
       H  5.48562e-03  4.82220e-03 -2.17969e-03
       O -5.13210e-04 -1.43491e-03 -3.63448e-04
       H  2.53353e-04  4.49137e-03  8.46723e-05
       H  3.74070e-03 -5.93714e-03  2.79268e-03
       O -2.93613e-04  1.59437e-03 -9.63128e-04
       H -3.67016e-03 -1.75428e-03 -1.66727e-03
       H -9.54495e-04  1.18212e-03  9.83141e-04
       O  9.65434e-04  5.38512e-04  4.55296e-04
       H  2.11382e-03 -4.31201e-03 -7.60496e-04
       H  9.12069e-04 -1.91087e-03 -4.18456e-03
       O -1.09724e-03  1.27550e-03  1.03513e-03
       H -6.38711e-03 -3.15761e-03 -5.09886e-05
       H -2.23633e-03 -1.35535e-03  1.56306e-03
       O  1.29552e-04 -1.84476e-03 -1.55701e-03
       H  2.48090e-03 -2.38056e-03 -4.50960e-03
       H -3.59811e-03  1.97478e-04 -1.23141e-03
       O -1.03348e-03 -5.51012e-05 -7.16173e-04
       H -3.27900e-04 -2.08109e-03  2.78018e-03
       H -3.31960e-03  5.08245e-03  6.63649e-04
       O -1.82241e-03  7.31430e-04 -1.27171e-03
       H  3.88649e-05  4.04088e-03 -1.32823e-03
       H  5.47786e-03  8.91324e-04 -4.23783e-05
       O  1.91050e-04  1.27985e-04 -8.51218e-04
       H -7.85550e-03  3.86721e-03  1.07020e-03
       H -2.63688e-03  2.40217e-03 -6.05263e-03
       O -7.48267e-04 -8.47082e-04 -3.15733e-04
       H -1.62369e-03 -2.41599e-03 -6.81256e-03
       H -2.81211e-03 -4.23057e-03  2.46137e-03
       O  5.58945e-04 -3.61425e-04 -3.50508e-04
       H  3.17304e-03  1.22567e-03  1.09004e-02
       H  3.95124e-03  3.57743e-03  4.16908e-03
       O  1.16311e-03  2.41336e-03  3.67330e-04
       H -2.70702e-04  1.33242e-03  1.75082e-03
       H  4.27741e-03 -1.18694e-03 -1.41545e-03
       O -4.72378e-04  5.30008e-04  6.52825e-04
       H -8.92672e-04  3.85822e-04 -2.69019e-03
       H  4.47647e-04  1.32644e-03  5.09183e-03
       O  8.28451e-04 -1.10438e-03  1.68347e-03
       H -4.49964e-03  2.96175e-03  1.30801e-03
       H  1.99190e-04  3.93534e-04  3.54486e-03
       O -1.42989e-03  2.02210e-03  4.38231e-04
       H  6.97121e-04  2.91917e-03  2.75129e-03
       H -7.88946e-03 -1.77814e-03  3.06669e-03
       O  1.39999e-04 -1.96686e-04  1.86434e-04
       H -4.60161e-03 -9.01163e-03 -4.60462e-03
       H  2.14784e-03 -8.27064e-03  2.59905e-03
       O -1.58860e-03 -1.66598e-03  1.08627e-04
       H -1.45017e-03 -2.55964e-04 -3.77910e-03
       H -2.76968e-03  1.46309e-03  6.86433e-03
       O  5.25918e-04 -6.49016e-04  5.32806e-04
       H  9.98872e-05 -3.99380e-04 -2.83961e-03
       H  3.13945e-03  9.16823e-03 -5.26038e-03
       O -4.16889e-04 -1.34340e-03 -9.40416e-04
       H  3.66218e-03 -7.43033e-04 -7.15904e-03
       H -5.58720e-04  2.78607e-03 -2.52362e-03
       O  3.36688e-04  2.45103e-04  9.97022e-04
       H  1.88135e-04  9.01270e-04 -4.69988e-03
       H  1.75598e-03  1.37588e-03  7.42036e-03
192
# CELL(abcABC):   16.99620    29.43815    27.67315    90.00000    90.00000    90.00000  Step:          30  Bead:       2 velocities{atomic_unit}  cell{atomic_unit}
       O -5.12502e-04  9.86607e-05  3.65796e-04
       H  4.14986e-03  4.02949e-03 -4.45956e-03
       H -6.98887e-03  3.10276e-03  7.14690e-04
       O -8.34708e-05  5.64707e-04  1.25610e-03
       H  9.71774e-03 -4.46176e-04  2.42036e-03
       H  4.27787e-04  1.05284e-03 -3.86816e-05
       O  9.50489e-04  6.81694e-04 -2.65443e-04
       H  1.36756e-03  2.04537e-03 -1.42510e-03
       H  5.17304e-03  9.72760e-04  1.01818e-02
       O -6.32811e-04 -7.99506e-04  1.51182e-03
       H -3.13935e-03  2.06705e-03 -3.87641e-03
       H -2.74068e-04 -1.20969e-03 -3.79720e-03
       O  1.53023e-03 -2.31630e-04 -6.33562e-05
       H  5.18882e-03  1.39829e-03  4.52807e-03
       H -3.87520e-03 -1.96425e-03 -2.88006e-03
       O  1.58851e-03 -1.69304e-04  1.32779e-03
       H -9.33735e-05 -2.82869e-03  3.05335e-03
       H -8.15938e-03 -1.60119e-04  2.04900e-03
       O -1.53588e-03  8.13953e-04 -3.25890e-04
       H  1.87405e-03  4.19029e-03 -4.16155e-03
       H -3.61738e-03  8.54770e-03  1.76528e-03
       O  1.05809e-03 -4.80290e-04 -2.23366e-05
       H -1.70252e-03  1.56316e-03  1.19145e-03
       H  3.07916e-03  2.19371e-03  2.71635e-04
       O  9.25058e-04  2.29184e-04  6.03195e-04
       H  1.53510e-03 -9.59787e-04 -3.69218e-03
       H -6.17572e-03 -4.85990e-03  9.73726e-03
       O  1.23141e-03 -7.35468e-04  3.54050e-04
       H  2.44901e-03 -2.23448e-03  1.44278e-03
       H -8.37992e-04  2.09559e-03 -2.11145e-03
       O -5.80948e-04 -1.21868e-03 -2.48207e-04
       H  4.80536e-03 -8.57944e-05  5.36210e-03
       H  4.52130e-03  1.04447e-03  1.99326e-03
       O  9.22721e-04  1.87759e-03 -1.31019e-03
       H  2.87892e-03  4.47578e-03  6.54243e-03