192
# CELL(abcABC):   16.99620    29.43815    27.67315    90.00000    90.00000    90.00000  Step:           0  Bead:      22 positions{atomic_unit}  cell{atomic_unit}
       O -8.22215e+00 -9.94239e+00 -1.31733e+01
       H  7.30664e+00 -1.09711e+01 -1.36322e+01
       H -6.70615e+00 -1.09482e+01 -1.35006e+01
       O -3.97298e+00 -2.58228e+00 -1.31734e+01
       H -5.44033e+00 -3.61131e+00 -1.36317e+01
       H -2.45697e+00 -3.58820e+00 -1.35005e+01
       O -3.95756e+00 -1.25543e+01 -7.82386e-01
       H -3.95604e+00 -1.43515e+01 -2.29143e-01
       H -4.14759e+00 -1.25671e+01 -2.59983e+00
       O -8.20667e+00 -5.19495e+00 -7.82227e-01
       H -8.20527e+00 -6.99211e+00 -2.28860e-01
       H -8.39642e+00 -5.20788e+00 -2.59970e+00
       O -4.52495e+00 -1.21366e+01 -6.25523e+00
       H -6.04104e+00 -1.11308e+01 -6.58223e+00
       H -3.05766e+00 -1.11077e+01 -6.71383e+00
       O  8.22247e+00 -4.77716e+00 -6.25561e+00
       H  6.70639e+00 -3.77128e+00 -6.58235e+00
       H -7.30644e+00 -3.74813e+00 -6.71411e+00
       O  8.20650e+00 -9.52435e+00 -7.70064e+00
       H  8.39647e+00 -9.51190e+00 -9.51809e+00
       H  8.20529e+00 -7.72704e+00 -7.14768e+00
       O -4.54027e+00 -2.16431e+00 -7.70075e+00
       H -4.35006e+00 -2.15153e+00 -9.51816e+00
       H -4.54166e+00 -3.67089e-01 -7.14744e+00
       O -8.22211e+00 -9.94193e+00  6.63469e-01
       H  7.30672e+00 -1.09707e+01  2.04633e-01
       H -6.70609e+00 -1.09478e+01  3.36365e-01
       O -3.97290e+00 -2.58257e+00  6.63081e-01
       H -5.44032e+00 -3.61148e+00  2.04655e-01
       H -2.45688e+00 -3.58848e+00  3.35971e-01
       O -3.95760e+00 -1.25545e+01  1.30538e+01
       H -3.95614e+00 -1.43517e+01  1.36071e+01
       H -4.14757e+00 -1.25673e+01  1.12363e+01
       O -8.20656e+00 -5.19529e+00  1.30545e+01
       H -8.20517e+00 -6.99250e+00  1.36078e+01
       H -8.39634e+00 -5.20824e+00  1.12370e+01
       O -4.52490e+00 -1.21367e+01  7.58138e+00
       H -6.04102e+00 -1.11309e+01  7.25435e+00
       H -3.05757e+00 -1.11078e+01  7.12272e+00
       O  8.22232e+00 -4.77760e+00  7.58065e+00
       H  6.70627e+00 -3.77169e+00  7.25392e+00
       H -7.30657e+00 -3.74862e+00  7.12211e+00
       O  8.20656e+00 -9.52478e+00  6.13597e+00
       H  8.39651e+00 -9.51229e+00  4.31849e+00
       H  8.20527e+00 -7.72747e+00  6.68889e+00
       O -4.54025e+00 -2.16471e+00  6.13560e+00
       H -4.34999e+00 -2.15183e+00  4.31818e+00
       H -4.54168e+00 -3.67533e-01  6.68897e+00
       O -8.22212e+00  4.77724e+00 -1.31733e+01
       H  7.30671e+00  3.74833e+00 -1.36320e+01
       H -6.70607e+00  3.77135e+00 -1.35002e+01
       O -3.97288e+00  1.21369e+01 -1.31734e+01
       H -5.44030e+00  1.11079e+01 -1.36317e+01
       H -2.45689e+00  1.11310e+01 -1.35006e+01
       O -3.95757e+00  2.16435e+00 -7.82368e-01
       H -3.95607e+00  3.67109e-01 -2.29207e-01
       H -4.14756e+00  2.15166e+00 -2.59983e+00
       O -8.20667e+00  9.52420e+00 -7.81868e-01
       H -8.20527e+00  7.72699e+00 -2.28645e-01
       H -8.39652e+00  9.51128e+00 -2.59932e+00
       O -4.52494e+00  2.58246e+00 -6.25501e+00
       H -6.04100e+00  3.58821e+00 -6.58223e+00
       H -3.05758e+00  3.61139e+00 -6.71360e+00
       O  8.22236e+00  9.94146e+00 -6.25587e+00
       H  6.70631e+00  1.09474e+01 -6.58279e+00
       H -7.30653e+00  1.09705e+01 -6.71435e+00
       O  8.20665e+00  5.19438e+00 -7.70097e+00
       H  8.39659e+00  5.20693e+00 -9.51844e+00
       H  8.20533e+00  6.99167e+00 -7.14797e+00
       O -4.54026e+00  1.25545e+01 -7.70081e+00
       H -4.34992e+00  1.25674e+01 -9.51823e+00
       H -4.54169e+00  1.43517e+01 -7.14749e+00
       O -8.22210e+00  4.77691e+00  6.62996e-01
       H  7.30665e+00  3.74808e+00  2.04431e-01
       H -6.70613e+00  3.77091e+00  3.36028e-01
       O -3.97279e+00  1.21369e+01  6.63306e-01
       H -5.44019e+00  1.11079e+01  2.05006e-01
       H -2.45681e+00  1.11309e+01  3.36133e-01
       O -3.95757e+00  2.16479e+00  1.30545e+01
       H -3.95616e+00  3.67575e-01  1.36077e+01
       H -4.14769e+00  2.15200e+00  1.12370e+01
       O -8.20659e+00  9.52434e+00  1.30546e+01
       H -8.20522e+00  7.72713e+00  1.36079e+01
       H -8.39644e+00  9.51145e+00  1.12371e+01
       O -4.52499e+00  2.58228e+00  7.58148e+00
       H -6.04100e+00  3.58814e+00  7.25437e+00
       H -3.05766e+00  3.61126e+00  7.12297e+00
       O  8.22229e+00  9.94203e+00  7.58108e+00
       H  6.70627e+00  1.09480e+01  7.25419e+00
       H -7.30655e+00  1.09710e+01  7.12260e+00
       O  8.20668e+00  5.19493e+00  6.13567e+00
       H  8.39670e+00  5.20749e+00  4.31823e+00
       H  8.20535e+00  6.99219e+00  6.68874e+00
       O -4.54018e+00  1.25546e+01  6.13603e+00
       H -4.34989e+00  1.25674e+01  4.31861e+00
       H -4.54161e+00  1.43518e+01  6.68925e+00
       O  2.75877e-01 -9.94198e+00 -1.31737e+01
       H -1.19147e+00 -1.09709e+01 -1.36323e+01
       H  1.79191e+00 -1.09478e+01 -1.35009e+01
       O  4.52479e+00 -2.58220e+00 -1.31736e+01
       H  3.05750e+00 -3.61120e+00 -1.36322e+01
       H  6.04084e+00 -3.58815e+00 -1.35003e+01
       O  4.54038e+00 -1.25538e+01 -7.82378e-01
       H  4.54166e+00 -1.43510e+01 -2.29173e-01
       H  4.35042e+00 -1.25666e+01 -2.59983e+00
       O  2.91382e-01 -5.19489e+00 -7.82498e-01
       H  2.92775e-01 -6.99208e+00 -2.29179e-01
       H  1.01240e-01 -5.20770e+00 -2.59994e+00
       O  3.97307e+00 -1.21369e+01 -6.25482e+00
       H  2.45707e+00 -1.11310e+01 -6.58187e+00
       H  5.44043e+00 -1.11080e+01 -6.71350e+00
       O -2.76167e-01 -4.77714e+00 -6.25484e+00
       H -1.79215e+00 -3.77120e+00 -6.58193e+00
       H  1.19122e+00 -3.74822e+00 -6.71327e+00
       O -2.91294e-01 -9.52406e+00 -7.70061e+00
       H -1.01153e-01 -9.51128e+00 -9.51804e+00
       H -2.92737e-01 -7.72684e+00 -7.14734e+00
       O  3.95740e+00 -2.16468e+00 -7.70029e+00
       H  4.14711e+00 -2.15178e+00 -9.51779e+00
       H  3.95613e+00 -3.67477e-01 -7.14700e+00
       O  2.75838e-01 -9.94166e+00  6.63265e-01
       H -1.19143e+00 -1.09706e+01  2.04532e-01
       H  1.79197e+00 -1.09474e+01  3.36068e-01
       O  4.52471e+00 -2.58218e+00  6.62891e-01
       H  3.05743e+00 -3.61117e+00  2.04240e-01
       H  6.04080e+00 -3.58806e+00  3.36089e-01
       O  4.54037e+00 -1.25543e+01  1.30539e+01
       H  4.54173e+00 -1.43516e+01  1.36070e+01
       H  4.35050e+00 -1.25670e+01  1.12364e+01
       O  2.91297e-01 -5.19502e+00  1.30541e+01
       H  2.92732e-01 -6.99225e+00  1.36074e+01
       H  1.01206e-01 -5.20786e+00  1.12367e+01
       O  3.97310e+00 -1.21368e+01  7.58177e+00
       H  2.45707e+00 -1.11309e+01  7.25464e+00
       H  5.44051e+00 -1.11080e+01  7.12302e+00
       O -2.76100e-01 -4.77767e+00  7.58136e+00
       H -1.79210e+00 -3.77177e+00  7.25428e+00
       H  1.19125e+00 -3.74871e+00  7.12290e+00
       O -2.91340e-01 -9.52458e+00  6.13593e+00
       H -1.01282e-01 -9.51181e+00  4.31852e+00
       H -2.92762e-01 -7.72734e+00  6.68916e+00
       O  3.95728e+00 -2.16475e+00  6.13602e+00
       H  4.14704e+00 -2.15175e+00  4.31853e+00
       H  3.95603e+00 -3.67615e-01  6.68942e+00
       O  2.75872e-01  4.77775e+00 -1.31735e+01
       H -1.19145e+00  3.74868e+00 -1.36320e+01
       H  1.79192e+00  3.77189e+00 -1.35005e+01
       O  4.52473e+00  1.21369e+01 -1.31737e+01
       H  3.05744e+00  1.11080e+01 -1.36325e+01
       H  6.04082e+00  1.11311e+01 -1.35004e+01
       O  4.54033e+00  2.16480e+00 -7.82502e-01
       H  4.54166e+00  3.67553e-01 -2.29384e-01
       H  4.35052e+00  2.15214e+00 -2.60000e+00
       O  2.91442e-01  9.52423e+00 -7.82681e-01
       H  2.92837e-01  7.72701e+00 -2.29452e-01
       H  1.01299e-01  9.51146e+00 -2.60013e+00
       O  3.97319e+00  2.58230e+00 -6.25496e+00
       H  2.45717e+00  3.58819e+00 -6.58198e+00
       H  5.44056e+00  3.61109e+00 -6.71379e+00
       O -2.76125e-01  9.94167e+00 -6.25515e+00
       H -1.79212e+00  1.09476e+01 -6.58222e+00
       H  1.19126e+00  1.09706e+01 -6.71377e+00
       O -2.91369e-01  5.19475e+00 -7.70046e+00
       H -1.01380e-01  5.20765e+00 -9.51793e+00
       H -2.92793e-01  6.99195e+00 -7.14718e+00
       O  3.95737e+00  1.25543e+01 -7.70076e+00
       H  4.14703e+00  1.25673e+01 -9.51824e+00
       H  3.95606e+00  1.43514e+01 -7.14726e+00
       O  2.75794e-01  4.77734e+00  6.62959e-01
       H -1.19152e+00  3.74832e+00  2.04499e-01
       H  1.79186e+00  3.77147e+00  3.35887e-01
       O  4.52464e+00  1.21373e+01  6.62988e-01
       H  3.05745e+00  1.11082e+01  2.04218e-01
       H  6.04076e+00  1.11314e+01  3.36450e-01
       O  4.54041e+00  2.16499e+00  1.30543e+01
       H  4.54178e+00  3.67749e-01  1.36074e+01
       H  4.35054e+00  2.15228e+00  1.12368e+01
       O  2.91308e-01  9.52457e+00  1.30538e+01
       H  2.92715e-01  7.72735e+00  1.36071e+01
       H  1.01225e-01  9.51181e+00  1.12363e+01
       O  3.97315e+00  2.58235e+00  7.58152e+00
       H  2.45713e+00  3.58829e+00  7.25455e+00
       H  5.44048e+00  3.61122e+00  7.12279e+00
       O -2.76008e-01  9.94202e+00  7.58171e+00
       H -1.79205e+00  1.09479e+01  7.25468e+00
       H  1.19134e+00  1.09710e+01  7.12317e+00
       O -2.91416e-01  5.19510e+00  6.13606e+00
       H -1.01371e-01  5.20795e+00  4.31863e+00
       H -2.92777e-01  6.99228e+00  6.68938e+00
       O  3.95729e+00  1.25546e+01  6.13612e+00
       H  4.14688e+00  1.25676e+01  4.31864e+00
       H  3.95603e+00  1.43518e+01  6.68952e+00
192
# CELL(abcABC):   16.99620    29.43815    27.67315    90.00000    90.00000    90.00000  Step:          10  Bead:      22 positions{atomic_unit}  cell{atomic_unit}
       O -8.27032e+00 -9.99167e+00 -1.31250e+01
       H  7.46853e+00 -1.09623e+01 -1.33307e+01
       H -6.59924e+00 -1.08921e+01 -1.36054e+01
       O -3.95392e+00 -2.59482e+00 -1.31692e+01
       H -5.54597e+00 -3.69634e+00 -1.35800e+01
       H -2.21018e+00 -3.70936e+00 -1.34600e+01
       O -3.88441e+00 -1.25210e+01 -8.06438e-01
       H -3.79983e+00 -1.40592e+01 -3.54061e-01
       H -4.16879e+00 -1.26881e+01 -2.67249e+00
       O -8.19031e+00 -5.22480e+00 -7.35597e-01
       H -8.16449e+00 -6.82703e+00 -3.08560e-01
       H -8.44106e+00 -5.08355e+00 -2.58828e+00
       O -4.51343e+00 -1.21808e+01 -6.30610e+00
       H -5.94776e+00 -1.09980e+01 -7.00573e+00
       H -2.95584e+00 -1.12382e+01 -6.68191e+00
       O  8.26012e+00 -4.77745e+00 -6.32595e+00
       H  6.79834e+00 -3.64724e+00 -6.53654e+00
       H -7.14349e+00 -3.68195e+00 -6.86134e+00
       O  8.14523e+00 -9.51324e+00 -7.71996e+00
       H  8.41656e+00 -9.64401e+00 -9.53080e+00
       H  7.97396e+00 -7.73129e+00 -7.07324e+00
       O -4.56470e+00 -2.16202e+00 -7.68337e+00
       H -4.07778e+00 -2.00662e+00 -9.41996e+00
       H -4.69076e+00 -3.77816e-01 -7.14185e+00
       O -8.21997e+00 -9.91860e+00  6.70917e-01
       H  7.42705e+00 -1.11701e+01  1.77528e-01
       H -7.02359e+00 -1.07912e+01  3.09930e-01
       O -3.90046e+00 -2.52955e+00  6.89059e-01
       H -5.29261e+00 -3.90680e+00  4.00161e-01
       H -2.49466e+00 -3.67895e+00  3.84501e-01
       O -3.98293e+00 -1.25321e+01  1.30565e+01
       H -4.06876e+00 -1.44858e+01  1.36881e+01
       H -4.04404e+00 -1.27237e+01  1.13248e+01
       O -8.22093e+00 -5.13246e+00  1.31369e+01
       H -7.87638e+00 -7.21137e+00  1.33420e+01
       H -8.64095e+00 -5.08144e+00  1.10298e+01
       O -4.55769e+00 -1.21600e+01  7.54498e+00
       H -6.23108e+00 -1.10569e+01  7.09476e+00
       H -3.38603e+00 -1.09023e+01  7.10660e+00
       O  8.19350e+00 -4.71913e+00  7.55871e+00
       H  6.63231e+00 -3.90331e+00  7.11363e+00
       H -7.36572e+00 -3.78653e+00  7.04368e+00
       O  8.19758e+00 -9.55848e+00  6.12529e+00
       H  8.53559e+00 -9.36260e+00  4.41726e+00
       H  8.39061e+00 -7.81074e+00  6.81040e+00
       O -4.48507e+00 -2.14452e+00  6.14983e+00
       H -4.28676e+00 -2.33116e+00  4.21388e+00
       H -4.50650e+00 -3.46238e-01  6.77152e+00
       O -8.25707e+00  4.74111e+00 -1.32231e+01
       H  7.11629e+00  3.57346e+00 -1.35017e+01
       H -6.66377e+00  3.35857e+00 -1.35188e+01
       O -3.99736e+00  1.21837e+01 -1.31499e+01
       H -5.55152e+00  1.12873e+01 -1.33476e+01
       H -2.34004e+00  1.13026e+01 -1.34352e+01
       O -3.92641e+00  2.19797e+00 -8.14969e-01
       H -3.91737e+00  3.49524e-01 -4.21847e-01
       H -4.01357e+00  2.23313e+00 -2.52261e+00
       O -8.18974e+00  9.42991e+00 -7.62036e-01
       H -8.22089e+00  7.81621e+00 -1.30144e-01
       H -8.40255e+00  9.44089e+00 -2.79554e+00
       O -4.56927e+00  2.62247e+00 -6.28816e+00
       H -6.01832e+00  3.50092e+00 -6.49646e+00
       H -3.10329e+00  3.77386e+00 -6.73289e+00
       O  8.16868e+00  9.90118e+00 -6.30920e+00
       H  6.66467e+00  1.11230e+01 -6.48365e+00
       H -7.15205e+00  1.08583e+01 -6.99762e+00
       O  8.24864e+00  5.21824e+00 -7.63018e+00
       H  8.42768e+00  5.28637e+00 -9.55730e+00
       H  8.22283e+00  6.75545e+00 -6.65872e+00
       O -4.51607e+00  1.25900e+01 -7.75735e+00
       H -4.32276e+00  1.25274e+01 -9.52904e+00
       H -4.74046e+00  1.44710e+01 -6.96967e+00
       O -8.19200e+00  4.78606e+00  6.76831e-01
       H  7.26391e+00  3.62895e+00  2.48214e-01
       H -6.51219e+00  3.45322e+00  3.46692e-01
       O -3.95482e+00  1.21431e+01  6.24552e-01
       H -5.58286e+00  1.10708e+01  2.95653e-01
       H -2.38440e+00  1.11956e+01  2.82852e-01
       O -3.97317e+00  2.18003e+00  1.30265e+01
       H -3.77177e+00  1.39209e-01  1.35280e+01
       H -4.35395e+00  2.14650e+00  1.11334e+01
       O -8.24476e+00  9.51642e+00  1.31157e+01
       H -8.48474e+00  7.75947e+00  1.35361e+01
       H -8.46973e+00  9.43249e+00  1.11534e+01
       O -4.46668e+00  2.56340e+00  7.60571e+00
       H -6.22807e+00  3.45163e+00  7.26932e+00
       H -3.16210e+00  3.64670e+00  6.91553e+00
       O  8.17442e+00  1.00254e+01  7.59075e+00
       H  6.67404e+00  1.11914e+01  7.25303e+00
       H -7.31352e+00  1.13091e+01  7.15723e+00
       O  8.21175e+00  5.14477e+00  6.18406e+00
       H  8.32277e+00  5.36506e+00  4.52018e+00
       H  7.90464e+00  7.01734e+00  6.61155e+00
       O -4.51989e+00  1.25658e+01  6.15077e+00
       H -4.56484e+00  1.23509e+01  4.41541e+00
       H -4.48333e+00  1.44195e+01  6.31904e+00
       O  2.49946e-01 -9.86596e+00 -1.32358e+01
       H -1.47967e+00 -1.08629e+01 -1.35725e+01
       H  1.71075e+00 -1.08574e+01 -1.34109e+01
       O  4.52104e+00 -2.61052e+00 -1.31991e+01
       H  3.31452e+00 -3.59852e+00 -1.38316e+01
       H  5.92828e+00 -3.66239e+00 -1.35334e+01
       O  4.54126e+00 -1.25665e+01 -8.53229e-01
       H  4.43988e+00 -1.43346e+01 -3.78079e-01
       H  4.34199e+00 -1.23803e+01 -2.83402e+00
       O  2.90917e-01 -5.22546e+00 -7.68600e-01
       H  3.89296e-01 -7.06424e+00 -3.01781e-01
       H  4.51194e-02 -5.01025e+00 -2.60510e+00
       O  3.95272e+00 -1.20898e+01 -6.23183e+00
       H  2.46355e+00 -1.11132e+01 -6.58307e+00
       H  5.51439e+00 -1.09240e+01 -6.73611e+00
       O -3.08808e-01 -4.74532e+00 -6.27641e+00
       H -1.89978e+00 -3.71365e+00 -6.52786e+00
       H  1.16424e+00 -3.62487e+00 -7.08498e+00
       O -2.27349e-01 -9.49886e+00 -7.74955e+00
       H -2.60333e-01 -9.29695e+00 -9.55240e+00
       H -2.51656e-01 -7.51441e+00 -7.46560e+00
       O  3.97581e+00 -2.15754e+00 -7.73412e+00
       H  4.10297e+00 -2.08463e+00 -9.44495e+00
       H  4.01754e+00 -2.17946e-01 -7.13879e+00
       O  2.91623e-01 -9.89666e+00  5.93252e-01
       H -9.82631e-01 -1.08318e+01 -1.55658e-01
       H  1.62342e+00 -1.11652e+01  5.54032e-01
       O  4.56846e+00 -2.62767e+00  6.06024e-01
       H  3.02853e+00 -3.79019e+00 -5.96452e-02
       H  6.09858e+00 -3.81163e+00  5.06571e-01
       O  4.56595e+00 -1.25548e+01  1.30668e+01
       H  4.31950e+00 -1.44265e+01  1.33854e+01
       H  4.16666e+00 -1.27734e+01  1.11878e+01
       O  2.95513e-01 -5.25073e+00  1.30633e+01
       H  2.81095e-01 -7.08990e+00  1.35314e+01
       H  3.62170e-01 -5.42387e+00  1.12213e+01
       O  3.92092e+00 -1.21205e+01  7.56341e+00
       H  2.46846e+00 -1.10992e+01  7.27701e+00
       H  5.37453e+00 -1.11179e+01  7.30777e+00
       O -2.61246e-01 -4.76671e+00  7.59305e+00
       H -1.83323e+00 -3.77768e+00  7.08156e+00
       H  1.12283e+00 -3.82360e+00  7.47579e+00
       O -2.85514e-01 -9.63160e+00  6.10463e+00
       H -8.99621e-02 -9.50731e+00  4.37953e+00
       H -4.20674e-01 -7.82095e+00  6.75654e+00
       O  3.91218e+00 -2.11781e+00  6.10881e+00
       H  4.35717e+00 -2.29392e+00  4.00127e+00
       H  4.07856e+00 -2.57820e-01  6.80391e+00
       O  2.68827e-01  4.79634e+00 -1.31148e+01
       H -1.30987e+00  3.73758e+00 -1.38693e+01
       H  1.62598e+00  3.80132e+00 -1.36471e+01
       O  4.48797e+00  1.21448e+01 -1.31858e+01
       H  2.97578e+00  1.08338e+01 -1.35066e+01
       H  6.06681e+00  1.10234e+01 -1.32510e+01
       O  4.55311e+00  2.17655e+00 -7.86489e-01
       H  4.50761e+00  4.16819e-01 -4.93260e-01
       H  4.31238e+00  2.26814e+00 -2.38436e+00
       O  2.17460e-01  9.55663e+00 -7.22555e-01
       H  2.07473e-01  7.46221e+00 -2.77232e-01
       H  3.34497e-01  9.42209e+00 -2.59131e+00
       O  3.97626e+00  2.58244e+00 -6.22274e+00
       H  2.47418e+00  3.61880e+00 -6.81550e+00
       H  5.53608e+00  3.45215e+00 -6.76145e+00
       O -2.50302e-01  9.94413e+00 -6.28057e+00
       H -1.68909e+00  1.09586e+01 -6.22660e+00
       H  1.34249e+00  1.10633e+01 -6.62917e+00
       O -3.57150e-01  5.13998e+00 -7.63766e+00
       H -1.62316e-01  5.38282e+00 -9.42921e+00
       H -1.94574e-01  7.01674e+00 -7.10298e+00
       O  3.92722e+00  1.26072e+01 -7.74646e+00
       H  4.54878e+00  1.26818e+01 -9.45226e+00
       H  3.82321e+00  1.43438e+01 -7.18230e+00
       O  3.06477e-01  4.81114e+00  6.70837e-01
       H -1.13971e+00  3.94404e+00  2.31163e-01
       H  1.68783e+00  3.57875e+00  5.53808e-01
       O  4.48868e+00  1.21085e+01  6.14833e-01
       H  2.94676e+00  1.10241e+01  1.61520e-01
       H  6.37617e+00  1.11471e+01  1.13385e-01
       O  4.48472e+00  2.19738e+00  1.30678e+01
       H  4.72014e+00  3.24729e-01  1.35823e+01
       H  4.44627e+00  2.17334e+00  1.12497e+01
       O  2.78090e-01  9.62490e+00  1.30182e+01
       H  3.47244e-01  7.57256e+00  1.37441e+01
       H  3.12571e-01  9.59797e+00  1.13813e+01
       O  3.96613e+00  2.62139e+00  7.59179e+00
       H  2.48045e+00  3.49226e+00  7.28358e+00
       H  5.52106e+00  3.34545e+00  7.12724e+00
       O -3.75568e-01  9.93069e+00  7.61700e+00
       H -1.84820e+00  1.11211e+01  7.28773e+00
       H  1.20424e+00  1.09801e+01  7.20705e+00
       O -2.05507e-01  5.23845e+00  6.17872e+00
       H  4.14376e-03  5.47641e+00  4.30783e+00
       H -1.46355e-01  6.99724e+00  6.59511e+00
       O  3.90665e+00  1.25493e+01  6.07573e+00
       H  4.04545e+00  1.27597e+01  4.20651e+00
       H  3.83476e+00  1.42832e+01  6.60441e+00
192
# CELL(abcABC):   16.99620    29.43815    27.67315    90.00000    90.00000    90.00000  Step:          20  Bead:      22 positions{atomic_unit}  cell{atomic_unit}
       O -8.22966e+00 -9.96854e+00 -1.30588e+01
       H  7.27882e+00 -1.10262e+01 -1.32324e+01
       H -6.50015e+00 -1.05245e+01 -1.36207e+01
       O -3.92683e+00 -2.56111e+00 -1.30961e+01
       H -5.33549e+00 -3.81734e+00 -1.33964e+01
       H -2.25994e+00 -3.44371e+00 -1.37894e+01
       O -3.90654e+00 -1.24522e+01 -8.17791e-01
       H -3.70988e+00 -1.42165e+01 -3.68798e-01
       H -4.04475e+00 -1.27386e+01 -2.64942e+00
       O -8.18685e+00 -5.24812e+00 -6.95956e-01
       H -8.17707e+00 -6.91563e+00 -4.32682e-02
       H -8.93915e+00 -5.10019e+00 -2.50429e+00
       O -4.54560e+00 -1.21845e+01 -6.24032e+00
       H -5.94170e+00 -1.08967e+01 -7.11734e+00
       H -2.81678e+00 -1.11550e+01 -6.83429e+00
       O  8.30072e+00 -4.70292e+00 -6.36173e+00
       H  6.67803e+00 -3.92141e+00 -6.61243e+00
       H -7.33297e+00 -3.79540e+00 -7.06494e+00
       O  8.15542e+00 -9.44017e+00 -7.70155e+00
       H  8.24095e+00 -9.42851e+00 -9.56463e+00
       H  7.94997e+00 -7.77026e+00 -7.15974e+00
       O -4.49765e+00 -2.13225e+00 -7.68341e+00
       H -3.85423e+00 -2.14846e+00 -9.24724e+00
       H -4.65464e+00 -4.44820e-01 -7.13268e+00
       O -8.33496e+00 -9.87187e+00  6.32850e-01
       H  7.33061e+00 -1.12688e+01  3.44526e-01
       H -7.00438e+00 -1.11997e+01 -3.27134e-02
       O -3.89313e+00 -2.47652e+00  7.58869e-01
       H -5.20108e+00 -3.92339e+00  4.05298e-01
       H -2.72977e+00 -3.70384e+00  2.33999e-01
       O -3.97102e+00 -1.25278e+01  1.31107e+01
       H -4.09086e+00 -1.43895e+01  1.37632e+01
       H -4.19815e+00 -1.25570e+01  1.12824e+01
       O -8.25306e+00 -5.11641e+00  1.31067e+01
       H -7.85764e+00 -7.07294e+00  1.32730e+01
       H -8.36888e+00 -5.04505e+00  1.10173e+01
       O -4.56762e+00 -1.21487e+01  7.58832e+00
       H -5.99218e+00 -1.12096e+01  7.09003e+00
       H -3.37104e+00 -1.07720e+01  7.02097e+00
       O  8.16839e+00 -4.75520e+00  7.49348e+00
       H  6.54180e+00 -3.82508e+00  7.23950e+00
       H -7.14185e+00 -3.72254e+00  6.95924e+00
       O  8.19224e+00 -9.49858e+00  6.19409e+00
       H  8.13049e+00 -9.19994e+00  4.21900e+00
       H  8.52832e+00 -7.74491e+00  6.81597e+00
       O -4.46383e+00 -2.02983e+00  6.12917e+00
       H -4.36518e+00 -2.37031e+00  4.41487e+00
       H -4.68186e+00 -1.78361e-01  6.55530e+00
       O -8.22287e+00  4.78572e+00 -1.32836e+01
       H  7.13936e+00  3.67683e+00 -1.34076e+01
       H -7.01234e+00  3.44983e+00 -1.36590e+01
       O -4.08959e+00  1.22793e+01 -1.31999e+01
       H -5.67668e+00  1.13571e+01 -1.35051e+01
       H -2.31275e+00  1.11828e+01 -1.35121e+01
       O -3.88206e+00  2.16016e+00 -8.83288e-01
       H -3.92293e+00  3.72368e-01 -3.68946e-01
       H -4.21465e+00  2.22809e+00 -2.61142e+00
       O -8.30864e+00  9.45346e+00 -7.39844e-01
       H -8.04480e+00  7.77632e+00 -1.48413e-01
       H -8.34682e+00  9.56345e+00 -2.45067e+00
       O -4.49711e+00  2.61310e+00 -6.29915e+00
       H -6.15164e+00  3.49870e+00 -6.45455e+00
       H -3.10195e+00  3.75684e+00 -6.64054e+00
       O  8.13212e+00  9.85021e+00 -6.28379e+00
       H  6.60866e+00  1.08012e+01 -6.77857e+00
       H -7.03389e+00  1.10176e+01 -6.75613e+00
       O  8.23168e+00  5.21976e+00 -7.69248e+00
       H  8.66651e+00  5.31734e+00 -9.55279e+00
       H  8.35308e+00  7.14083e+00 -6.37662e+00
       O -4.55244e+00  1.25928e+01 -7.77227e+00
       H -4.41743e+00  1.25178e+01 -9.60977e+00
       H -4.75144e+00  1.42325e+01 -7.11035e+00
       O -8.21776e+00  4.71466e+00  6.26705e-01
       H  7.21265e+00  3.66522e+00  1.70231e-01
       H -6.90024e+00  3.34458e+00  3.36804e-01
       O -3.97961e+00  1.21006e+01  6.38786e-01
       H -5.53067e+00  1.10657e+01  4.19611e-01
       H -2.47047e+00  1.09572e+01  4.21703e-01
       O -3.98661e+00  2.16611e+00  1.30164e+01
       H -3.91116e+00  6.86493e-02  1.36231e+01
       H -4.11267e+00  1.99779e+00  1.11344e+01
       O -8.20369e+00  9.46039e+00  1.30596e+01
       H -8.42416e+00  7.55567e+00  1.33263e+01
       H -8.41763e+00  9.52355e+00  1.13170e+01
       O -4.47852e+00  2.58802e+00  7.57108e+00
       H -6.40632e+00  3.54540e+00  7.47967e+00
       H -3.11046e+00  3.52924e+00  6.84387e+00
       O  8.16236e+00  1.00582e+01  7.56100e+00
       H  6.66607e+00  1.11570e+01  6.78758e+00
       H -7.25329e+00  1.08905e+01  7.29462e+00
       O  8.21267e+00  5.13136e+00  6.20558e+00
       H  8.45430e+00  5.37156e+00  4.33892e+00
       H  7.90851e+00  6.88905e+00  6.88276e+00
       O -4.53969e+00  1.25802e+01  6.15789e+00
       H -4.60147e+00  1.24433e+01  4.18393e+00
       H -4.35467e+00  1.44052e+01  6.47870e+00
       O  3.26588e-01 -9.84210e+00 -1.32675e+01
       H -1.37499e+00 -1.06161e+01 -1.33448e+01
       H  1.62081e+00 -1.09511e+01 -1.30817e+01
       O  4.59701e+00 -2.60916e+00 -1.31742e+01
       H  3.19947e+00 -3.71046e+00 -1.41177e+01
       H  6.18135e+00 -3.75927e+00 -1.37116e+01
       O  4.62835e+00 -1.25928e+01 -8.88174e-01
       H  4.47421e+00 -1.42442e+01 -2.45080e-01
       H  4.40579e+00 -1.21915e+01 -2.53891e+00
       O  3.21462e-01 -5.21206e+00 -7.69961e-01
       H  4.81945e-01 -6.92374e+00 -2.03793e-01
       H -1.07514e-01 -4.92518e+00 -2.60585e+00
       O  3.96097e+00 -1.21583e+01 -6.20157e+00
       H  2.43005e+00 -1.10966e+01 -6.52513e+00
       H  5.52075e+00 -1.08835e+01 -6.59659e+00
       O -3.04932e-01 -4.74444e+00 -6.33433e+00
       H -1.91838e+00 -3.92718e+00 -6.61145e+00
       H  1.06581e+00 -3.67667e+00 -6.81181e+00
       O -2.07441e-01 -9.47215e+00 -7.66273e+00
       H -1.79196e-01 -9.41549e+00 -9.60090e+00
       H -1.97279e-01 -7.45868e+00 -7.60196e+00
       O  3.98516e+00 -2.21815e+00 -7.71789e+00
       H  4.26794e+00 -2.17566e+00 -9.41341e+00
       H  3.98246e+00 -1.25918e-01 -7.04723e+00
       O  2.67376e-01 -9.93805e+00  5.22903e-01
       H -1.18463e+00 -1.10195e+01 -1.37429e-01
       H  1.56513e+00 -1.09716e+01  5.06331e-01
       O  4.53120e+00 -2.64534e+00  5.65903e-01
       H  3.14346e+00 -3.82062e+00  9.37360e-02
       H  6.28353e+00 -3.87342e+00  5.54554e-01
       O  4.59710e+00 -1.25639e+01  1.30715e+01
       H  4.42217e+00 -1.42806e+01  1.31971e+01
       H  4.02810e+00 -1.24520e+01  1.11539e+01
       O  3.13307e-01 -5.29280e+00  1.31358e+01
       H  3.57007e-01 -7.08512e+00  1.37663e+01
       H  3.48238e-01 -5.23670e+00  1.11865e+01
       O  3.80032e+00 -1.21071e+01  7.59937e+00
       H  2.32374e+00 -1.10562e+01  7.30049e+00
       H  5.37429e+00 -1.09655e+01  7.28693e+00
       O -2.53504e-01 -4.78995e+00  7.61647e+00
       H -1.85464e+00 -3.61228e+00  7.35116e+00
       H  1.40720e+00 -3.64198e+00  7.10076e+00
       O -2.95473e-01 -9.61837e+00  6.16285e+00
       H -2.63262e-01 -9.52546e+00  4.13806e+00
       H -3.81351e-01 -7.79424e+00  6.65834e+00
       O  3.98730e+00 -2.15531e+00  6.16916e+00
       H  4.38176e+00 -2.57996e+00  3.97596e+00
       H  3.94172e+00 -3.41446e-01  6.77927e+00
       O  2.38897e-01  4.81028e+00 -1.31133e+01
       H -1.25120e+00  3.72368e+00 -1.40450e+01
       H  1.71106e+00  3.92894e+00 -1.38302e+01
       O  4.44175e+00  1.21730e+01 -1.31603e+01
       H  3.01434e+00  1.08477e+01 -1.35691e+01
       H  6.13056e+00  1.12923e+01 -1.32959e+01
       O  4.62701e+00  2.13911e+00 -6.73302e-01
       H  4.45481e+00  2.70342e-01 -2.99632e-01
       H  4.34427e+00  2.42393e+00 -2.59867e+00
       O  1.45620e-01  9.49881e+00 -7.27982e-01
       H  4.97660e-01  7.76215e+00 -2.14377e-01
       H  4.29792e-01  9.31624e+00 -2.53729e+00
       O  3.91068e+00  2.58596e+00 -6.11409e+00
       H  2.27020e+00  3.54869e+00 -7.00786e+00
       H  5.53818e+00  3.11422e+00 -6.88818e+00
       O -1.83495e-01  9.95565e+00 -6.31331e+00
       H -1.91287e+00  1.08412e+01 -6.36535e+00
       H  1.03557e+00  1.13518e+01 -6.44818e+00
       O -3.34504e-01  5.18151e+00 -7.62179e+00
       H  4.28125e-02  5.32925e+00 -9.51148e+00
       H -3.33707e-01  7.15809e+00 -6.91282e+00
       O  3.99074e+00  1.25564e+01 -7.77241e+00
       H  4.68459e+00  1.28375e+01 -9.81197e+00
       H  4.01834e+00  1.44971e+01 -7.00066e+00
       O  2.67627e-01  4.81883e+00  6.78162e-01
       H -1.13314e+00  3.88898e+00  2.28886e-01
       H  1.86890e+00  3.62203e+00  6.46466e-01
       O  4.49866e+00  1.20776e+01  6.72793e-01
       H  3.16125e+00  1.11730e+01  4.38765e-01
       H  6.17160e+00  1.12878e+01  1.98742e-01
       O  4.49758e+00  2.21629e+00  1.30514e+01
       H  4.69800e+00  2.98810e-01  1.33775e+01
       H  4.26778e+00  2.39405e+00  1.12319e+01
       O  2.75877e-01  9.57020e+00  1.30254e+01
       H  7.08645e-01  7.74001e+00  1.37871e+01
       H  2.87835e-01  9.42965e+00  1.11871e+01
       O  4.01837e+00  2.55222e+00  7.66988e+00
       H  2.35913e+00  3.38597e+00  7.40040e+00
       H  5.30987e+00  3.57916e+00  6.88030e+00
       O -4.49808e-01  9.90211e+00  7.61909e+00
       H -1.64735e+00  1.11553e+01  7.53229e+00
       H  1.26906e+00  1.05392e+01  7.20007e+00
       O -2.77033e-01  5.30919e+00  6.15829e+00
       H -3.33507e-01  5.31018e+00  4.20977e+00
       H -8.59930e-02  6.92437e+00  6.60641e+00
       O  3.91518e+00  1.25160e+01  6.07516e+00
       H  4.01983e+00  1.28746e+01  4.16530e+00
       H  3.76178e+00  1.41296e+01  6.74438e+00
192
# CELL(abcABC):   16.99620    29.43815    27.67315    90.00000    90.00000    90.00000  Step:          30  Bead:      22 positions{atomic_unit}  cell{atomic_unit}
       O -8.17196e+00 -1.00346e+01 -1.30585e+01
       H  7.20424e+00 -1.09669e+01 -1.31819e+01
       H -6.71985e+00 -1.08855e+01 -1.36707e+01
       O -3.91516e+00 -2.51500e+00 -1.31177e+01
       H -5.15683e+00 -3.75162e+00 -1.36337e+01
       H -2.24602e+00 -3.43479e+00 -1.37470e+01
       O -3.97189e+00 -1.24830e+01 -7.71870e-01
       H -3.94516e+00 -1.44410e+01 -1.17271e-01
       H -4.36445e+00 -1.26194e+01 -2.56395e+00
       O -8.28035e+00 -5.18448e+00 -7.06171e-01
       H -8.26841e+00 -7.25492e+00 -2.65502e-01
       H -8.81374e+00 -5.18057e+00 -2.63540e+00
       O -4.56759e+00 -1.21070e+01 -6.25426e+00
       H -5.76340e+00 -1.10122e+01 -7.19017e+00
       H -2.73068e+00 -1.11592e+01 -6.35029e+00
       O  8.30849e+00 -4.68634e+00 -6.39403e+00
       H  6.36219e+00 -3.68941e+00 -6.75673e+00
       H -7.43129e+00 -3.62496e+00 -6.95072e+00
       O  8.19744e+00 -9.48323e+00 -7.70136e+00
       H  8.40254e+00 -9.31909e+00 -9.36138e+00
       H  7.68015e+00 -7.82303e+00 -6.77761e+00
       O -4.46768e+00 -2.13078e+00 -7.62445e+00
       H -3.92357e+00 -2.21377e+00 -9.29880e+00
       H -4.76042e+00 -3.56751e-01 -7.07618e+00
       O -8.29077e+00 -9.86846e+00  6.39235e-01
       H  7.37877e+00 -1.12328e+01  3.22751e-01
       H -7.00404e+00 -1.09163e+01 -2.66175e-02
       O -3.88768e+00 -2.53280e+00  7.80568e-01
       H -5.08593e+00 -4.00340e+00  4.58754e-01
       H -2.62260e+00 -3.70505e+00  2.89484e-01
       O -3.90771e+00 -1.25800e+01  1.31346e+01
       H -4.35869e+00 -1.42270e+01  1.37524e+01
       H -4.09248e+00 -1.26705e+01  1.14882e+01
       O -8.20393e+00 -5.12435e+00  1.30574e+01
       H -8.00597e+00 -6.93330e+00  1.36284e+01