192
# CELL(abcABC):   16.99620    29.43815    27.67315    90.00000    90.00000    90.00000  Step:           0  Bead:      27 positions{atomic_unit}  cell{atomic_unit}
       O -8.22215e+00 -9.94239e+00 -1.31733e+01
       H  7.30664e+00 -1.09711e+01 -1.36322e+01
       H -6.70615e+00 -1.09482e+01 -1.35006e+01
       O -3.97298e+00 -2.58228e+00 -1.31734e+01
       H -5.44033e+00 -3.61131e+00 -1.36317e+01
       H -2.45697e+00 -3.58820e+00 -1.35005e+01
       O -3.95756e+00 -1.25543e+01 -7.82386e-01
       H -3.95604e+00 -1.43515e+01 -2.29143e-01
       H -4.14759e+00 -1.25671e+01 -2.59983e+00
       O -8.20667e+00 -5.19495e+00 -7.82227e-01
       H -8.20527e+00 -6.99211e+00 -2.28860e-01
       H -8.39642e+00 -5.20788e+00 -2.59970e+00
       O -4.52495e+00 -1.21366e+01 -6.25523e+00
       H -6.04104e+00 -1.11308e+01 -6.58223e+00
       H -3.05766e+00 -1.11077e+01 -6.71383e+00
       O  8.22247e+00 -4.77716e+00 -6.25561e+00
       H  6.70639e+00 -3.77128e+00 -6.58235e+00
       H -7.30644e+00 -3.74813e+00 -6.71411e+00
       O  8.20650e+00 -9.52435e+00 -7.70064e+00
       H  8.39647e+00 -9.51190e+00 -9.51809e+00
       H  8.20529e+00 -7.72704e+00 -7.14768e+00
       O -4.54027e+00 -2.16431e+00 -7.70075e+00
       H -4.35006e+00 -2.15153e+00 -9.51816e+00
       H -4.54166e+00 -3.67089e-01 -7.14744e+00
       O -8.22211e+00 -9.94193e+00  6.63469e-01
       H  7.30672e+00 -1.09707e+01  2.04633e-01
       H -6.70609e+00 -1.09478e+01  3.36365e-01
       O -3.97290e+00 -2.58257e+00  6.63081e-01
       H -5.44032e+00 -3.61148e+00  2.04655e-01
       H -2.45688e+00 -3.58848e+00  3.35971e-01
       O -3.95760e+00 -1.25545e+01  1.30538e+01
       H -3.95614e+00 -1.43517e+01  1.36071e+01
       H -4.14757e+00 -1.25673e+01  1.12363e+01
       O -8.20656e+00 -5.19529e+00  1.30545e+01
       H -8.20517e+00 -6.99250e+00  1.36078e+01
       H -8.39634e+00 -5.20824e+00  1.12370e+01
       O -4.52490e+00 -1.21367e+01  7.58138e+00
       H -6.04102e+00 -1.11309e+01  7.25435e+00
       H -3.05757e+00 -1.11078e+01  7.12272e+00
       O  8.22232e+00 -4.77760e+00  7.58065e+00
       H  6.70627e+00 -3.77169e+00  7.25392e+00
       H -7.30657e+00 -3.74862e+00  7.12211e+00
       O  8.20656e+00 -9.52478e+00  6.13597e+00
       H  8.39651e+00 -9.51229e+00  4.31849e+00
       H  8.20527e+00 -7.72747e+00  6.68889e+00
       O -4.54025e+00 -2.16471e+00  6.13560e+00
       H -4.34999e+00 -2.15183e+00  4.31818e+00
       H -4.54168e+00 -3.67533e-01  6.68897e+00
       O -8.22212e+00  4.77724e+00 -1.31733e+01
       H  7.30671e+00  3.74833e+00 -1.36320e+01
       H -6.70607e+00  3.77135e+00 -1.35002e+01
       O -3.97288e+00  1.21369e+01 -1.31734e+01
       H -5.44030e+00  1.11079e+01 -1.36317e+01
       H -2.45689e+00  1.11310e+01 -1.35006e+01
       O -3.95757e+00  2.16435e+00 -7.82368e-01
       H -3.95607e+00  3.67109e-01 -2.29207e-01
       H -4.14756e+00  2.15166e+00 -2.59983e+00
       O -8.20667e+00  9.52420e+00 -7.81868e-01
       H -8.20527e+00  7.72699e+00 -2.28645e-01
       H -8.39652e+00  9.51128e+00 -2.59932e+00
       O -4.52494e+00  2.58246e+00 -6.25501e+00
       H -6.04100e+00  3.58821e+00 -6.58223e+00
       H -3.05758e+00  3.61139e+00 -6.71360e+00
       O  8.22236e+00  9.94146e+00 -6.25587e+00
       H  6.70631e+00  1.09474e+01 -6.58279e+00
       H -7.30653e+00  1.09705e+01 -6.71435e+00
       O  8.20665e+00  5.19438e+00 -7.70097e+00
       H  8.39659e+00  5.20693e+00 -9.51844e+00
       H  8.20533e+00  6.99167e+00 -7.14797e+00
       O -4.54026e+00  1.25545e+01 -7.70081e+00
       H -4.34992e+00  1.25674e+01 -9.51823e+00
       H -4.54169e+00  1.43517e+01 -7.14749e+00
       O -8.22210e+00  4.77691e+00  6.62996e-01
       H  7.30665e+00  3.74808e+00  2.04431e-01
       H -6.70613e+00  3.77091e+00  3.36028e-01
       O -3.97279e+00  1.21369e+01  6.63306e-01
       H -5.44019e+00  1.11079e+01  2.05006e-01
       H -2.45681e+00  1.11309e+01  3.36133e-01
       O -3.95757e+00  2.16479e+00  1.30545e+01
       H -3.95616e+00  3.67575e-01  1.36077e+01
       H -4.14769e+00  2.15200e+00  1.12370e+01
       O -8.20659e+00  9.52434e+00  1.30546e+01
       H -8.20522e+00  7.72713e+00  1.36079e+01
       H -8.39644e+00  9.51145e+00  1.12371e+01
       O -4.52499e+00  2.58228e+00  7.58148e+00
       H -6.04100e+00  3.58814e+00  7.25437e+00
       H -3.05766e+00  3.61126e+00  7.12297e+00
       O  8.22229e+00  9.94203e+00  7.58108e+00
       H  6.70627e+00  1.09480e+01  7.25419e+00
       H -7.30655e+00  1.09710e+01  7.12260e+00
       O  8.20668e+00  5.19493e+00  6.13567e+00
       H  8.39670e+00  5.20749e+00  4.31823e+00
       H  8.20535e+00  6.99219e+00  6.68874e+00
       O -4.54018e+00  1.25546e+01  6.13603e+00
       H -4.34989e+00  1.25674e+01  4.31861e+00
       H -4.54161e+00  1.43518e+01  6.68925e+00
       O  2.75877e-01 -9.94198e+00 -1.31737e+01
       H -1.19147e+00 -1.09709e+01 -1.36323e+01
       H  1.79191e+00 -1.09478e+01 -1.35009e+01
       O  4.52479e+00 -2.58220e+00 -1.31736e+01
       H  3.05750e+00 -3.61120e+00 -1.36322e+01
       H  6.04084e+00 -3.58815e+00 -1.35003e+01
       O  4.54038e+00 -1.25538e+01 -7.82378e-01
       H  4.54166e+00 -1.43510e+01 -2.29173e-01
       H  4.35042e+00 -1.25666e+01 -2.59983e+00
       O  2.91382e-01 -5.19489e+00 -7.82498e-01
       H  2.92775e-01 -6.99208e+00 -2.29179e-01
       H  1.01240e-01 -5.20770e+00 -2.59994e+00
       O  3.97307e+00 -1.21369e+01 -6.25482e+00
       H  2.45707e+00 -1.11310e+01 -6.58187e+00
       H  5.44043e+00 -1.11080e+01 -6.71350e+00
       O -2.76167e-01 -4.77714e+00 -6.25484e+00
       H -1.79215e+00 -3.77120e+00 -6.58193e+00
       H  1.19122e+00 -3.74822e+00 -6.71327e+00
       O -2.91294e-01 -9.52406e+00 -7.70061e+00
       H -1.01153e-01 -9.51128e+00 -9.51804e+00
       H -2.92737e-01 -7.72684e+00 -7.14734e+00
       O  3.95740e+00 -2.16468e+00 -7.70029e+00
       H  4.14711e+00 -2.15178e+00 -9.51779e+00
       H  3.95613e+00 -3.67477e-01 -7.14700e+00
       O  2.75838e-01 -9.94166e+00  6.63265e-01
       H -1.19143e+00 -1.09706e+01  2.04532e-01
       H  1.79197e+00 -1.09474e+01  3.36068e-01
       O  4.52471e+00 -2.58218e+00  6.62891e-01
       H  3.05743e+00 -3.61117e+00  2.04240e-01
       H  6.04080e+00 -3.58806e+00  3.36089e-01
       O  4.54037e+00 -1.25543e+01  1.30539e+01
       H  4.54173e+00 -1.43516e+01  1.36070e+01
       H  4.35050e+00 -1.25670e+01  1.12364e+01
       O  2.91297e-01 -5.19502e+00  1.30541e+01
       H  2.92732e-01 -6.99225e+00  1.36074e+01
       H  1.01206e-01 -5.20786e+00  1.12367e+01
       O  3.97310e+00 -1.21368e+01  7.58177e+00
       H  2.45707e+00 -1.11309e+01  7.25464e+00
       H  5.44051e+00 -1.11080e+01  7.12302e+00
       O -2.76100e-01 -4.77767e+00  7.58136e+00
       H -1.79210e+00 -3.77177e+00  7.25428e+00
       H  1.19125e+00 -3.74871e+00  7.12290e+00
       O -2.91340e-01 -9.52458e+00  6.13593e+00
       H -1.01282e-01 -9.51181e+00  4.31852e+00
       H -2.92762e-01 -7.72734e+00  6.68916e+00
       O  3.95728e+00 -2.16475e+00  6.13602e+00
       H  4.14704e+00 -2.15175e+00  4.31853e+00
       H  3.95603e+00 -3.67615e-01  6.68942e+00
       O  2.75872e-01  4.77775e+00 -1.31735e+01
       H -1.19145e+00  3.74868e+00 -1.36320e+01
       H  1.79192e+00  3.77189e+00 -1.35005e+01
       O  4.52473e+00  1.21369e+01 -1.31737e+01
       H  3.05744e+00  1.11080e+01 -1.36325e+01
       H  6.04082e+00  1.11311e+01 -1.35004e+01
       O  4.54033e+00  2.16480e+00 -7.82502e-01
       H  4.54166e+00  3.67553e-01 -2.29384e-01
       H  4.35052e+00  2.15214e+00 -2.60000e+00
       O  2.91442e-01  9.52423e+00 -7.82681e-01
       H  2.92837e-01  7.72701e+00 -2.29452e-01
       H  1.01299e-01  9.51146e+00 -2.60013e+00
       O  3.97319e+00  2.58230e+00 -6.25496e+00
       H  2.45717e+00  3.58819e+00 -6.58198e+00
       H  5.44056e+00  3.61109e+00 -6.71379e+00
       O -2.76125e-01  9.94167e+00 -6.25515e+00
       H -1.79212e+00  1.09476e+01 -6.58222e+00
       H  1.19126e+00  1.09706e+01 -6.71377e+00
       O -2.91369e-01  5.19475e+00 -7.70046e+00
       H -1.01380e-01  5.20765e+00 -9.51793e+00
       H -2.92793e-01  6.99195e+00 -7.14718e+00
       O  3.95737e+00  1.25543e+01 -7.70076e+00
       H  4.14703e+00  1.25673e+01 -9.51824e+00
       H  3.95606e+00  1.43514e+01 -7.14726e+00
       O  2.75794e-01  4.77734e+00  6.62959e-01
       H -1.19152e+00  3.74832e+00  2.04499e-01
       H  1.79186e+00  3.77147e+00  3.35887e-01
       O  4.52464e+00  1.21373e+01  6.62988e-01
       H  3.05745e+00  1.11082e+01  2.04218e-01
       H  6.04076e+00  1.11314e+01  3.36450e-01
       O  4.54041e+00  2.16499e+00  1.30543e+01
       H  4.54178e+00  3.67749e-01  1.36074e+01
       H  4.35054e+00  2.15228e+00  1.12368e+01
       O  2.91308e-01  9.52457e+00  1.30538e+01
       H  2.92715e-01  7.72735e+00  1.36071e+01
       H  1.01225e-01  9.51181e+00  1.12363e+01
       O  3.97315e+00  2.58235e+00  7.58152e+00
       H  2.45713e+00  3.58829e+00  7.25455e+00
       H  5.44048e+00  3.61122e+00  7.12279e+00
       O -2.76008e-01  9.94202e+00  7.58171e+00
       H -1.79205e+00  1.09479e+01  7.25468e+00
       H  1.19134e+00  1.09710e+01  7.12317e+00
       O -2.91416e-01  5.19510e+00  6.13606e+00
       H -1.01371e-01  5.20795e+00  4.31863e+00
       H -2.92777e-01  6.99228e+00  6.68938e+00
       O  3.95729e+00  1.25546e+01  6.13612e+00
       H  4.14688e+00  1.25676e+01  4.31864e+00
       H  3.95603e+00  1.43518e+01  6.68952e+00
192
# CELL(abcABC):   16.99620    29.43815    27.67315    90.00000    90.00000    90.00000  Step:          10  Bead:      27 positions{atomic_unit}  cell{atomic_unit}
       O -8.20756e+00 -9.97166e+00 -1.31736e+01
       H  7.25939e+00 -1.09012e+01 -1.34329e+01
       H -6.65596e+00 -1.08538e+01 -1.35792e+01
       O -3.88899e+00 -2.58641e+00 -1.30658e+01
       H -5.33624e+00 -3.55218e+00 -1.35199e+01
       H -2.65344e+00 -3.78159e+00 -1.33010e+01
       O -3.94263e+00 -1.25084e+01 -8.35021e-01
       H -4.00915e+00 -1.42242e+01 -1.60994e-01
       H -4.31911e+00 -1.23185e+01 -2.60162e+00
       O -8.27067e+00 -5.22082e+00 -7.71025e-01
       H -8.26015e+00 -7.02979e+00 -4.41878e-01
       H -8.36709e+00 -5.28368e+00 -2.53528e+00
       O -4.49587e+00 -1.21661e+01 -6.25233e+00
       H -6.09006e+00 -1.10682e+01 -6.73038e+00
       H -3.17638e+00 -1.10834e+01 -6.86387e+00
       O  8.28329e+00 -4.75633e+00 -6.28651e+00
       H  6.52311e+00 -3.82400e+00 -6.31011e+00
       H -7.07236e+00 -3.69425e+00 -6.83697e+00
       O  8.19763e+00 -9.50140e+00 -7.66514e+00
       H  8.65982e+00 -9.73435e+00 -9.51077e+00
       H  8.08456e+00 -7.88184e+00 -7.25120e+00
       O -4.53724e+00 -2.13103e+00 -7.70679e+00
       H -4.28662e+00 -2.14081e+00 -9.32617e+00
       H -4.52765e+00 -6.13245e-01 -6.96385e+00
       O -8.18560e+00 -9.89722e+00  6.97757e-01
       H  7.44381e+00 -1.12045e+01  1.64879e-01
       H -6.60272e+00 -1.08524e+01  4.34169e-01
       O -3.92398e+00 -2.56657e+00  7.46001e-01
       H -5.33577e+00 -3.54021e+00 -8.78488e-02
       H -2.41726e+00 -3.60863e+00  3.84624e-01
       O -3.95971e+00 -1.25063e+01  1.30268e+01
       H -4.00402e+00 -1.42739e+01  1.37296e+01
       H -4.34092e+00 -1.26511e+01  1.13070e+01
       O -8.21517e+00 -5.18320e+00  1.30510e+01
       H -8.06992e+00 -6.88123e+00  1.35925e+01
       H -8.17136e+00 -5.03558e+00  1.12576e+01
       O -4.58860e+00 -1.21629e+01  7.58157e+00
       H -6.08084e+00 -1.12325e+01  7.24638e+00
       H -3.26841e+00 -1.09416e+01  6.75476e+00
       O  8.22218e+00 -4.78579e+00  7.59779e+00
       H  6.56557e+00 -3.56274e+00  7.51883e+00
       H -7.40315e+00 -3.81295e+00  7.12661e+00
       O  8.23272e+00 -9.49963e+00  6.11469e+00
       H  8.44711e+00 -9.23399e+00  4.34388e+00
       H  8.32050e+00 -7.45521e+00  6.81884e+00
       O -4.56578e+00 -2.29845e+00  6.17253e+00
       H -4.40797e+00 -2.25819e+00  4.43359e+00
       H -4.48653e+00 -3.82267e-01  6.79523e+00
       O -8.20953e+00  4.77448e+00 -1.31745e+01
       H  6.85857e+00  3.77359e+00 -1.34971e+01
       H -6.51955e+00  3.87927e+00 -1.36024e+01
       O -3.97403e+00  1.21443e+01 -1.32491e+01
       H -5.44150e+00  1.09374e+01 -1.37551e+01
       H -2.54981e+00  1.11282e+01 -1.33414e+01
       O -3.87122e+00  2.13410e+00 -8.21806e-01
       H -4.22084e+00  4.77610e-01 -3.31440e-01
       H -4.08928e+00  1.90800e+00 -2.63682e+00
       O -8.20177e+00  9.49288e+00 -7.86333e-01
       H -7.91970e+00  7.94147e+00 -7.36385e-02
       H -8.21098e+00  9.51325e+00 -2.76161e+00
       O -4.50340e+00  2.58044e+00 -6.30191e+00
       H -5.99754e+00  3.59846e+00 -6.54753e+00
       H -2.84131e+00  3.36097e+00 -6.86317e+00
       O  8.17177e+00  9.90304e+00 -6.24145e+00
       H  6.42699e+00  1.10675e+01 -6.52756e+00
       H -7.43513e+00  1.09895e+01 -6.57097e+00
       O  8.26523e+00  5.24992e+00 -7.72747e+00
       H  8.67397e+00  5.09563e+00 -9.53203e+00
       H  8.20154e+00  7.06292e+00 -7.26516e+00
       O -4.58259e+00  1.25459e+01 -7.66842e+00
       H -4.51829e+00  1.28872e+01 -9.61430e+00
       H -4.69829e+00  1.42944e+01 -7.02789e+00
       O -8.20082e+00  4.73799e+00  6.15291e-01
       H  7.34822e+00  3.61424e+00  3.86370e-01
       H -6.69493e+00  3.73575e+00  4.88435e-01
       O -4.00581e+00  1.21056e+01  6.37318e-01
       H -5.50652e+00  1.10145e+01  1.03340e-01
       H -2.50882e+00  1.10778e+01  3.80197e-01
       O -3.94706e+00  2.12285e+00  1.30302e+01
       H -3.67650e+00  3.33280e-01  1.37545e+01
       H -4.22453e+00  2.05610e+00  1.13009e+01
       O -8.22654e+00  9.50028e+00  1.31107e+01
       H -8.35081e+00  7.76122e+00  1.33167e+01
       H -8.50536e+00  9.48557e+00  1.11530e+01
       O -4.51062e+00  2.60826e+00  7.52732e+00
       H -6.10995e+00  3.58641e+00  7.46678e+00
       H -2.90737e+00  3.65238e+00  7.21154e+00
       O  8.25737e+00  9.95412e+00  7.55493e+00
       H  6.56681e+00  1.11687e+01  7.43513e+00
       H -7.31979e+00  1.09680e+01  6.90902e+00
       O  8.18546e+00  5.22631e+00  6.08220e+00
       H  8.28474e+00  5.20063e+00  4.11533e+00
       H  8.15107e+00  6.89781e+00  6.50755e+00
       O -4.53329e+00  1.25787e+01  6.15137e+00
       H -4.33764e+00  1.25384e+01  4.42998e+00
       H -4.46406e+00  1.44057e+01  6.61872e+00
       O  2.94333e-01 -9.93317e+00 -1.32794e+01
       H -1.12811e+00 -1.08813e+01 -1.33485e+01
       H  1.51566e+00 -1.09886e+01 -1.33691e+01
       O  4.49159e+00 -2.63914e+00 -1.31589e+01
       H  3.06043e+00 -3.52384e+00 -1.35092e+01
       H  5.83036e+00 -3.57922e+00 -1.34624e+01
       O  4.59176e+00 -1.26629e+01 -8.28788e-01
       H  4.56173e+00 -1.42250e+01 -2.14920e-01
       H  4.32115e+00 -1.25264e+01 -2.49132e+00
       O  3.08682e-01 -5.23492e+00 -7.37989e-01
       H  4.63685e-01 -7.35926e+00 -3.19068e-01
       H  8.31020e-02 -5.16651e+00 -2.49541e+00
       O  4.03802e+00 -1.21505e+01 -6.24312e+00
       H  2.18442e+00 -1.13459e+01 -6.54467e+00
       H  5.58445e+00 -1.13626e+01 -6.57068e+00
       O -2.97575e-01 -4.81858e+00 -6.20370e+00
       H -2.09756e+00 -3.77497e+00 -6.68475e+00
       H  1.21364e+00 -3.62800e+00 -6.65929e+00
       O -2.19887e-01 -9.49372e+00 -7.68587e+00
       H  5.51249e-03 -9.58164e+00 -9.39042e+00
       H -5.09430e-01 -7.86741e+00 -7.16648e+00
       O  3.97550e+00 -2.10651e+00 -7.69592e+00
       H  4.10720e+00 -2.33677e+00 -9.53384e+00
       H  4.35738e+00 -3.16666e-01 -7.11076e+00
       O  2.35725e-01 -9.90312e+00  6.11594e-01
       H -1.30599e+00 -1.08834e+01  1.36353e-01
       H  1.66546e+00 -1.08860e+01  5.97724e-01
       O  4.53423e+00 -2.58680e+00  6.33163e-01
       H  3.04784e+00 -3.66395e+00  4.53485e-01
       H  6.02320e+00 -3.62032e+00  5.36471e-01
       O  4.54127e+00 -1.25386e+01  1.31335e+01
       H  4.43770e+00 -1.42378e+01  1.31355e+01
       H  4.18101e+00 -1.24786e+01  1.11947e+01
       O  3.06904e-01 -5.17813e+00  1.31139e+01
       H  4.12719e-01 -7.02991e+00  1.36594e+01
       H  5.77499e-02 -5.24807e+00  1.11824e+01
       O  3.97690e+00 -1.21571e+01  7.52915e+00
       H  2.47984e+00 -1.13196e+01  7.04013e+00
       H  5.25250e+00 -1.12745e+01  7.10582e+00
       O -2.52599e-01 -4.77550e+00  7.53589e+00
       H -1.69952e+00 -3.71115e+00  7.22365e+00
       H  1.26429e+00 -3.74713e+00  7.21087e+00
       O -2.68419e-01 -9.61015e+00  6.07760e+00
       H -3.38686e-01 -9.44350e+00  3.96603e+00
       H -3.25071e-01 -7.67120e+00  6.72088e+00
       O  3.93522e+00 -2.22448e+00  6.12611e+00
       H  4.03807e+00 -2.31484e+00  4.26577e+00
       H  4.10088e+00 -2.93840e-01  6.82044e+00
       O  2.08467e-01  4.77424e+00 -1.30487e+01
       H -1.34554e+00  3.97393e+00 -1.36812e+01
       H  1.75054e+00  3.71734e+00 -1.36638e+01
       O  4.50459e+00  1.21695e+01 -1.31539e+01
       H  3.03710e+00  1.12165e+01 -1.36972e+01
       H  5.93526e+00  1.10964e+01 -1.35370e+01
       O  4.54482e+00  2.16177e+00 -7.50327e-01
       H  4.48413e+00  2.00181e-01 -3.30547e-01
       H  4.33902e+00  2.07950e+00 -2.40716e+00
       O  2.86904e-01  9.56075e+00 -7.66688e-01
       H  3.45984e-01  7.70966e+00 -2.63748e-01
       H -2.86001e-01  9.71575e+00 -2.59360e+00
       O  3.93131e+00  2.56731e+00 -6.25765e+00
       H  2.34841e+00  3.50662e+00 -6.67601e+00
       H  5.47919e+00  3.64643e+00 -6.60214e+00
       O -2.15677e-01  9.92865e+00 -6.24410e+00
       H -1.91049e+00  1.08556e+01 -6.62576e+00
       H  1.15586e+00  1.08309e+01 -6.58825e+00
       O -2.98770e-01  5.17137e+00 -7.74969e+00
       H -8.26098e-02  5.27355e+00 -9.53154e+00
       H -5.93814e-01  6.87963e+00 -7.13144e+00
       O  4.01827e+00  1.25893e+01 -7.71671e+00
       H  4.21500e+00  1.26171e+01 -9.53761e+00
       H  4.10903e+00  1.44054e+01 -7.10670e+00
       O  2.64965e-01  4.76270e+00  6.60291e-01
       H -1.03492e+00  3.68082e+00  1.26921e-01
       H  1.72651e+00  3.86640e+00  3.26367e-01
       O  4.56978e+00  1.20988e+01  6.61903e-01
       H  3.09978e+00  1.09758e+01  1.81081e-01
       H  6.12745e+00  1.10338e+01  5.28401e-01
       O  4.52193e+00  2.23859e+00  1.30316e+01
       H  4.58971e+00  2.01787e-01  1.34412e+01
       H  4.42136e+00  2.13673e+00  1.10607e+01
       O  2.55213e-01  9.52717e+00  1.30501e+01
       H  6.73102e-01  7.83081e+00  1.36829e+01
       H  2.72032e-01  9.58131e+00  1.11925e+01
       O  3.98239e+00  2.50469e+00  7.59969e+00
       H  2.51097e+00  3.54613e+00  7.36243e+00
       H  5.39181e+00  3.59161e+00  7.29270e+00
       O -3.24752e-01  9.95309e+00  7.54185e+00
       H -1.74960e+00  1.11253e+01  7.24635e+00
       H  1.25577e+00  1.09871e+01  6.99999e+00
       O -2.77809e-01  5.22012e+00  6.11329e+00
       H -3.35812e-01  5.12539e+00  4.41478e+00
       H -2.13671e-01  7.10721e+00  6.68638e+00
       O  4.01741e+00  1.25381e+01  6.08649e+00
       H  3.93745e+00  1.26024e+01  4.27206e+00
       H  3.91501e+00  1.44210e+01  6.63840e+00
192
# CELL(abcABC):   16.99620    29.43815    27.67315    90.00000    90.00000    90.00000  Step:          20  Bead:      27 positions{atomic_unit}  cell{atomic_unit}
       O -8.21451e+00 -1.00319e+01 -1.31843e+01
       H  7.22288e+00 -1.09670e+01 -1.31984e+01
       H -6.97557e+00 -1.09113e+01 -1.36462e+01
       O -3.82143e+00 -2.53403e+00 -1.30594e+01
       H -5.00895e+00 -3.64110e+00 -1.35934e+01
       H -2.50953e+00 -3.76541e+00 -1.30706e+01
       O -3.91484e+00 -1.25699e+01 -8.87621e-01
       H -4.08009e+00 -1.44119e+01 -3.32948e-01
       H -4.06570e+00 -1.22006e+01 -2.68049e+00
       O -8.22092e+00 -5.24703e+00 -7.56943e-01
       H -8.04013e+00 -7.22558e+00 -4.58301e-01
       H -8.15431e+00 -5.22167e+00 -2.87599e+00
       O -4.50816e+00 -1.20943e+01 -6.31578e+00
       H -5.90091e+00 -1.10019e+01 -6.58648e+00
       H -3.28111e+00 -1.10987e+01 -6.71684e+00
       O  8.24291e+00 -4.70432e+00 -6.27422e+00
       H  6.57818e+00 -3.75660e+00 -6.38880e+00
       H -7.15965e+00 -3.50236e+00 -7.03464e+00
       O  8.22746e+00 -9.44208e+00 -7.71500e+00
       H  8.61239e+00 -9.56939e+00 -9.59630e+00
       H  7.85072e+00 -7.71428e+00 -7.15217e+00
       O -4.48889e+00 -2.07356e+00 -7.72386e+00
       H -4.45739e+00 -2.10513e+00 -9.76687e+00
       H -4.66796e+00 -5.76711e-01 -6.65447e+00
       O -8.21894e+00 -9.88586e+00  6.80879e-01
       H  7.49140e+00 -1.09336e+01  4.78492e-02
       H -6.60535e+00 -1.09314e+01  2.38938e-01
       O -3.98993e+00 -2.62309e+00  7.76193e-01
       H -5.39868e+00 -3.58551e+00  6.22939e-02
       H -2.45125e+00 -3.74917e+00  5.10330e-01
       O -3.94485e+00 -1.24344e+01  1.30527e+01
       H -4.08599e+00 -1.41852e+01  1.37412e+01
       H -4.19618e+00 -1.25070e+01  1.13101e+01
       O -8.17652e+00 -5.13498e+00  1.30814e+01
       H -8.03961e+00 -6.89284e+00  1.32650e+01
       H -8.46021e+00 -5.10109e+00  1.10931e+01
       O -4.61241e+00 -1.20896e+01  7.50686e+00
       H -5.90927e+00 -1.10320e+01  6.94178e+00
       H -3.09425e+00 -1.08029e+01  7.06651e+00
       O  8.22791e+00 -4.76872e+00  7.58804e+00
       H  6.82046e+00 -3.47228e+00  7.40955e+00
       H -7.41387e+00 -3.92873e+00  6.99408e+00
       O  8.23332e+00 -9.46510e+00  6.22154e+00
       H  8.53271e+00 -9.26227e+00  4.50410e+00
       H  8.41805e+00 -7.47928e+00  6.81463e+00
       O -4.54116e+00 -2.25935e+00  6.17174e+00
       H -4.63480e+00 -2.24860e+00  4.29909e+00
       H -4.68350e+00 -2.07052e-01  6.81684e+00
       O -8.28674e+00  4.79637e+00 -1.32357e+01
       H  6.98493e+00  3.58604e+00 -1.37456e+01
       H -6.53346e+00  3.78472e+00 -1.35857e+01
       O -3.97605e+00  1.21094e+01 -1.32145e+01
       H -5.39921e+00  1.08527e+01 -1.35918e+01
       H -2.33176e+00  1.09533e+01 -1.34227e+01
       O -3.87952e+00  2.15334e+00 -8.51627e-01
       H -4.08094e+00  3.74394e-01 -5.02674e-01
       H -4.11888e+00  1.94040e+00 -2.56831e+00
       O -8.27398e+00  9.50866e+00 -8.79525e-01
       H -7.74559e+00  7.87621e+00 -5.26023e-02
       H -8.20931e+00  9.70212e+00 -2.56336e+00
       O -4.57173e+00  2.56771e+00 -6.26920e+00
       H -5.94032e+00  3.85275e+00 -6.77509e+00
       H -2.90734e+00  3.22274e+00 -7.02415e+00
       O  8.11916e+00  9.91747e+00 -6.21539e+00
       H  6.70014e+00  1.07620e+01 -6.73908e+00
       H -7.14341e+00  1.09663e+01 -6.50392e+00
       O  8.21280e+00  5.25394e+00 -7.72144e+00
       H  8.78553e+00  5.09102e+00 -9.40385e+00
       H  8.15974e+00  7.05271e+00 -7.32124e+00
       O -4.63405e+00  1.25573e+01 -7.67191e+00
       H -4.47754e+00  1.26671e+01 -9.62566e+00
       H -4.59693e+00  1.43066e+01 -7.05469e+00
       O -8.18371e+00  4.75471e+00  6.01707e-01
       H  7.18860e+00  3.65257e+00  3.64137e-01
       H -6.70898e+00  3.75425e+00  5.39280e-02
       O -3.98635e+00  1.21063e+01  6.41479e-01
       H -5.57707e+00  1.12086e+01  2.49442e-03
       H -2.43817e+00  1.07567e+01  2.96644e-01
       O -3.98211e+00  2.22109e+00  1.29785e+01
       H -3.76101e+00  5.17303e-01  1.38828e+01
       H -4.69026e+00  2.38965e+00  1.12619e+01
       O -8.22689e+00  9.48057e+00  1.30975e+01
       H -8.58929e+00  7.37816e+00  1.31893e+01
       H -8.72968e+00  9.46918e+00  1.11962e+01
       O -4.46568e+00  2.58705e+00  7.53084e+00
       H -6.09990e+00  3.50827e+00  7.88194e+00
       H -3.07514e+00  3.82600e+00  7.04199e+00
       O  8.21234e+00  9.98665e+00  7.57519e+00
       H  6.83159e+00  1.13917e+01  7.38760e+00
       H -7.08338e+00  1.07076e+01  7.00257e+00
       O  8.21677e+00  5.25626e+00  6.05166e+00
       H  8.27649e+00  5.36295e+00  4.23416e+00
       H  8.13913e+00  7.26727e+00  6.70566e+00
       O -4.45870e+00  1.25490e+01  6.18986e+00
       H -4.66986e+00  1.25594e+01  4.28974e+00
       H -4.62727e+00  1.44778e+01  6.95918e+00
       O  3.02474e-01 -9.82450e+00 -1.32901e+01
       H -1.17884e+00 -1.07069e+01 -1.34917e+01
       H  1.87395e+00 -1.10493e+01 -1.34210e+01
       O  4.57001e+00 -2.64171e+00 -1.31591e+01
       H  2.96796e+00 -3.62882e+00 -1.39508e+01
       H  6.14143e+00 -3.42672e+00 -1.35631e+01
       O  4.59985e+00 -1.26918e+01 -7.95487e-01
       H  4.85742e+00 -1.44841e+01 -2.62489e-01
       H  4.27824e+00 -1.23423e+01 -2.55317e+00
       O  2.31540e-01 -5.23052e+00 -7.19109e-01
       H  4.64820e-01 -7.23405e+00 -6.66957e-01
       H -8.31966e-03 -4.95586e+00 -2.48656e+00
       O  4.04134e+00 -1.21352e+01 -6.20216e+00
       H  2.27428e+00 -1.12742e+01 -6.32705e+00
       H  5.51956e+00 -1.10045e+01 -6.75419e+00
       O -3.86756e-01 -4.78649e+00 -6.16297e+00
       H -1.97120e+00 -4.33166e+00 -6.49802e+00
       H  1.36517e+00 -3.79810e+00 -6.70936e+00
       O -1.87926e-01 -9.46032e+00 -7.81575e+00
       H  3.54091e-02 -9.31841e+00 -9.62280e+00
       H -3.48970e-01 -7.65843e+00 -7.10414e+00
       O  3.99022e+00 -2.11759e+00 -7.69268e+00
       H  3.71210e+00 -2.36477e+00 -9.63173e+00
       H  4.36866e+00 -5.28554e-01 -7.20574e+00
       O  2.13547e-01 -9.94634e+00  5.61324e-01
       H -1.22002e+00 -1.09072e+01  1.01121e-01
       H  1.91462e+00 -1.07353e+01  6.94811e-01
       O  4.60569e+00 -2.54077e+00  6.23104e-01
       H  3.07715e+00 -3.71368e+00  5.23211e-01
       H  6.11951e+00 -3.70757e+00  4.84634e-01
       O  4.60369e+00 -1.24984e+01  1.31276e+01
       H  4.76917e+00 -1.44472e+01  1.33905e+01
       H  4.38742e+00 -1.22451e+01  1.12985e+01
       O  2.59346e-01 -5.22948e+00  1.31128e+01
       H  4.95155e-01 -7.19982e+00  1.37896e+01
       H  3.75553e-02 -5.17572e+00  1.12939e+01
       O  3.89807e+00 -1.21331e+01  7.50721e+00
       H  2.23424e+00 -1.11161e+01  7.17998e+00
       H  5.38474e+00 -1.10011e+01  7.33328e+00
       O -2.98682e-01 -4.73938e+00  7.44262e+00
       H -1.87220e+00 -3.79950e+00  7.30649e+00
       H  1.33202e+00 -3.55677e+00  7.29579e+00
       O -3.44497e-01 -9.61952e+00  6.08812e+00
       H -5.09938e-01 -9.51108e+00  4.26305e+00
       H -2.07434e-01 -7.77773e+00  6.73126e+00
       O  3.92228e+00 -2.22675e+00  6.10218e+00
       H  4.01907e+00 -2.48384e+00  4.22915e+00
       H  4.26468e+00 -4.11974e-01  6.74808e+00
       O  1.81669e-01  4.81867e+00 -1.30554e+01
       H -1.38864e+00  4.00163e+00 -1.36236e+01
       H  1.60137e+00  3.89854e+00 -1.37493e+01
       O  4.50787e+00  1.21298e+01 -1.31879e+01
       H  3.18255e+00  1.11310e+01 -1.38410e+01
       H  6.08107e+00  1.12132e+01 -1.32149e+01
       O  4.54761e+00  2.20280e+00 -7.38972e-01
       H  4.56714e+00  3.63314e-01 -2.92831e-01
       H  4.25993e+00  2.18833e+00 -2.73678e+00
       O  2.52873e-01  9.55459e+00 -7.10695e-01
       H  3.22405e-01  7.71809e+00 -2.08935e-01
       H -6.26302e-02  9.66570e+00 -2.59469e+00
       O  4.00186e+00  2.59169e+00 -6.22834e+00
       H  2.33918e+00  3.53248e+00 -6.80061e+00
       H  5.62507e+00  3.83305e+00 -6.35655e+00
       O -2.37216e-01  9.87892e+00 -6.23010e+00
       H -1.82348e+00  1.08785e+01 -6.49790e+00
       H  1.31019e+00  1.09243e+01 -6.49648e+00
       O -2.83053e-01  5.16414e+00 -7.78694e+00
       H  8.24935e-02  5.52598e+00 -9.55486e+00
       H -3.79734e-01  6.94918e+00 -7.25603e+00
       O  4.02442e+00  1.25817e+01 -7.70182e+00
       H  4.32844e+00  1.26398e+01 -9.55379e+00
       H  3.89872e+00  1.43468e+01 -7.10652e+00
       O  2.44984e-01  4.82103e+00  6.46012e-01
       H -1.26359e+00  3.39541e+00  2.73347e-01
       H  1.90955e+00  3.81490e+00  3.17297e-01
       O  4.62202e+00  1.21113e+01  7.34045e-01
       H  3.29142e+00  1.11133e+01  5.63273e-02
       H  6.23025e+00  1.09446e+01  2.02260e-01
       O  4.52541e+00  2.29071e+00  1.30937e+01
       H  4.52960e+00  6.44785e-01  1.38231e+01
       H  4.54444e+00  2.53267e+00  1.10922e+01
       O  2.61813e-01  9.51536e+00  1.30434e+01
       H  6.83297e-01  7.80242e+00  1.37064e+01
       H -7.49634e-02  9.52233e+00  1.12115e+01
       O  3.95826e+00  2.44482e+00  7.60149e+00
       H  2.34109e+00  3.51373e+00  7.42384e+00
       H  5.25458e+00  3.71223e+00  7.31555e+00
       O -2.65380e-01  9.95796e+00  7.54333e+00
       H -1.86421e+00  1.10327e+01  7.17942e+00
       H  1.15003e+00  1.09025e+01  7.00798e+00
       O -2.45115e-01  5.23113e+00  6.12566e+00
       H -2.37609e-01  5.20499e+00  4.30271e+00
       H  4.11877e-01  7.21352e+00  6.37882e+00
       O  3.99405e+00  1.26098e+01  5.99074e+00
       H  3.65208e+00  1.27440e+01  3.95391e+00
       H  3.75984e+00  1.44418e+01  6.47374e+00
192
# CELL(abcABC):   16.99620    29.43815    27.67315    90.00000    90.00000    90.00000  Step:          30  Bead:      27 positions{atomic_unit}  cell{atomic_unit}
       O -8.19819e+00 -9.91718e+00 -1.31980e+01
       H  7.21790e+00 -1.08410e+01 -1.30231e+01
       H -6.94431e+00 -1.09102e+01 -1.37329e+01
       O -3.79595e+00 -2.52696e+00 -1.30384e+01
       H -5.27442e+00 -3.76270e+00 -1.34358e+01
       H -2.33193e+00 -3.69562e+00 -1.31799e+01
       O -3.88964e+00 -1.25747e+01 -9.45571e-01
       H -3.94278e+00 -1.43266e+01 -5.78678e-01
       H -4.19158e+00 -1.25137e+01 -2.69593e+00
       O -8.20175e+00 -5.24939e+00 -7.21597e-01
       H -7.91694e+00 -6.80516e+00 -4.67044e-02
       H -8.56552e+00 -5.08526e+00 -2.53231e+00
       O -4.48177e+00 -1.20819e+01 -6.29601e+00
       H -5.77961e+00 -1.09751e+01 -6.68574e+00
       H -3.01875e+00 -1.11632e+01 -6.67398e+00
       O  8.17529e+00 -4.71211e+00 -6.36050e+00
       H  6.54861e+00 -3.92454e+00 -6.70524e+00
       H -7.44229e+00 -3.60138e+00 -7.05350e+00
       O  8.26862e+00 -9.48542e+00 -7.66363e+00
       H  8.30207e+00 -9.34181e+00 -9.50479e+00
       H  7.90479e+00 -7.77115e+00 -6.99251e+00
       O -4.49084e+00 -2.16081e+00 -7.70513e+00
       H -4.15023e+00 -1.99212e+00 -9.60610e+00
       H -4.84686e+00 -5.57783e-01 -6.55291e+00
       O -8.25228e+00 -9.86246e+00  6.65627e-01
       H  7.21786e+00 -1.07575e+01  9.92763e-02
       H -6.74949e+00 -1.10565e+01 -1.73745e-01
       O -4.00441e+00 -2.64969e+00  7.76139e-01
       H -5.49895e+00 -3.73987e+00  5.24023e-02
       H -2.45438e+00 -3.89845e+00  6.58229e-01
       O -3.95675e+00 -1.23968e+01  1.30495e+01
       H -4.33082e+00 -1.42942e+01  1.35577e+01
       H -4.28785e+00 -1.24077e+01  1.11329e+01
       O -8.23631e+00 -5.17801e+00  1.30660e+01
       H -8.24876e+00 -6.77807e+00  1.31736e+01