192
# CELL(abcABC):   16.99620    29.43815    27.67315    90.00000    90.00000    90.00000  Step:           0  Bead:       4 positions{atomic_unit}  cell{atomic_unit}
       O -8.21943e+00 -9.93714e+00 -1.31733e+01
       H  7.30975e+00 -1.09659e+01 -1.36333e+01
       H -6.70309e+00 -1.09427e+01 -1.35003e+01
       O -3.97045e+00 -2.57760e+00 -1.31733e+01
       H -5.43740e+00 -3.60640e+00 -1.36335e+01
       H -2.45410e+00 -3.58307e+00 -1.35002e+01
       O -3.95479e+00 -1.25494e+01 -7.82537e-01
       H -3.95303e+00 -1.43463e+01 -2.27998e-01
       H -4.14654e+00 -1.25640e+01 -2.59980e+00
       O -8.20381e+00 -5.18980e+00 -7.82573e-01
       H -8.20206e+00 -6.98662e+00 -2.28079e-01
       H -8.39554e+00 -5.20430e+00 -2.59985e+00
       O -4.52774e+00 -1.21415e+01 -6.25501e+00
       H -6.04401e+00 -1.11359e+01 -6.58198e+00
       H -3.06070e+00 -1.11128e+01 -6.71509e+00
       O  8.21948e+00 -4.78197e+00 -6.25503e+00
       H  6.70316e+00 -3.77646e+00 -6.58191e+00
       H -7.30970e+00 -3.75321e+00 -6.71514e+00
       O  8.20373e+00 -9.52922e+00 -7.70081e+00
       H  8.39566e+00 -9.51468e+00 -9.51806e+00
       H  8.20220e+00 -7.73240e+00 -7.14624e+00
       O -4.54345e+00 -2.16975e+00 -7.70084e+00
       H -4.35162e+00 -2.15526e+00 -9.51812e+00
       H -4.54503e+00 -3.72917e-01 -7.14634e+00
       O -8.21943e+00 -9.93697e+00  6.63195e-01
       H  7.30977e+00 -1.09657e+01  2.03202e-01
       H -6.70308e+00 -1.09425e+01  3.36227e-01
       O -3.97044e+00 -2.57760e+00  6.63173e-01
       H -5.43747e+00 -3.60635e+00  2.03069e-01
       H -2.45410e+00 -3.58312e+00  3.36346e-01
       O -3.95472e+00 -1.25494e+01  1.30540e+01
       H -3.95309e+00 -1.43462e+01  1.36086e+01
       H -4.14653e+00 -1.25640e+01  1.12368e+01
       O -8.20380e+00 -5.18990e+00  1.30541e+01
       H -8.20202e+00 -6.98672e+00  1.36085e+01
       H -8.39553e+00 -5.20434e+00  1.12368e+01
       O -4.52771e+00 -1.21415e+01  7.58159e+00
       H -6.04402e+00 -1.11360e+01  7.25460e+00
       H -3.06070e+00 -1.11128e+01  7.12152e+00
       O  8.21944e+00 -4.78191e+00  7.58149e+00
       H  6.70312e+00 -3.77633e+00  7.25453e+00
       H -7.30974e+00 -3.75322e+00  7.12139e+00
       O  8.20378e+00 -9.52926e+00  6.13582e+00
       H  8.39564e+00 -9.51474e+00  4.31856e+00
       H  8.20221e+00 -7.73246e+00  6.69037e+00
       O -4.54344e+00 -2.16971e+00  6.13568e+00
       H -4.35161e+00 -2.15522e+00  4.31840e+00
       H -4.54506e+00 -3.72896e-01  6.69017e+00
       O -8.21947e+00  4.78210e+00 -1.31734e+01
       H  7.30974e+00  3.75335e+00 -1.36334e+01
       H -6.70314e+00  3.77651e+00 -1.35002e+01
       O -3.97046e+00  1.21415e+01 -1.31733e+01
       H -5.43745e+00  1.11127e+01 -1.36334e+01
       H -2.45410e+00  1.11360e+01 -1.35002e+01
       O -3.95479e+00  2.16971e+00 -7.82462e-01
       H -3.95303e+00  3.72884e-01 -2.27933e-01
       H -4.14646e+00  2.15509e+00 -2.59975e+00
       O -8.20376e+00  9.52923e+00 -7.82499e-01
       H -8.20200e+00  7.73238e+00 -2.27998e-01
       H -8.39546e+00  9.51472e+00 -2.59977e+00
       O -4.52774e+00  2.57749e+00 -6.25512e+00
       H -6.04400e+00  3.58312e+00 -6.58197e+00
       H -3.06066e+00  3.60618e+00 -6.71512e+00
       O  8.21949e+00  9.93715e+00 -6.25509e+00
       H  6.70318e+00  1.09426e+01 -6.58202e+00
       H -7.30970e+00  1.09659e+01 -6.71526e+00
       O  8.20366e+00  5.18988e+00 -7.70077e+00
       H  8.39552e+00  5.20437e+00 -9.51803e+00
       H  8.20217e+00  6.98669e+00 -7.14625e+00
       O -4.54337e+00  1.25494e+01 -7.70088e+00
       H -4.35159e+00  1.25639e+01 -9.51817e+00
       H -4.54500e+00  1.43462e+01 -7.14634e+00
       O -8.21952e+00  4.78190e+00  6.63226e-01
       H  7.30971e+00  3.75313e+00  2.03107e-01
       H -6.70317e+00  3.77635e+00  3.36440e-01
       O -3.97040e+00  1.21415e+01  6.63326e-01
       H -5.43738e+00  1.11127e+01  2.03185e-01
       H -2.45407e+00  1.11360e+01  3.36426e-01
       O -3.95476e+00  2.16964e+00  1.30541e+01
       H -3.95303e+00  3.72832e-01  1.36087e+01
       H -4.14651e+00  2.15510e+00  1.12369e+01
       O -8.20373e+00  9.52937e+00  1.30540e+01
       H -8.20206e+00  7.73252e+00  1.36085e+01
       H -8.39548e+00  9.51483e+00  1.12368e+01
       O -4.52770e+00  2.57756e+00  7.58140e+00
       H -6.04399e+00  3.58315e+00  7.25450e+00
       H -3.06066e+00  3.60630e+00  7.12138e+00
       O  8.21951e+00  9.93714e+00  7.58157e+00
       H  6.70319e+00  1.09427e+01  7.25463e+00
       H -7.30968e+00  1.09658e+01  7.12140e+00
       O  8.20369e+00  5.18993e+00  6.13578e+00
       H  8.39547e+00  5.20441e+00  4.31850e+00
       H  8.20212e+00  6.98674e+00  6.69030e+00
       O -4.54348e+00  1.25494e+01  6.13570e+00
       H -4.35158e+00  1.25639e+01  4.31845e+00
       H -4.54503e+00  1.43462e+01  6.69025e+00
       O  2.78573e-01 -9.93717e+00 -1.31734e+01
       H -1.18842e+00 -1.09659e+01 -1.36336e+01
       H  1.79493e+00 -1.09427e+01 -1.35002e+01
       O  4.52772e+00 -2.57751e+00 -1.31733e+01
       H  3.06068e+00 -3.60627e+00 -1.36334e+01
       H  6.04403e+00 -3.58305e+00 -1.35003e+01
       O  4.54334e+00 -1.25494e+01 -7.82465e-01
       H  4.54513e+00 -1.43463e+01 -2.27989e-01
       H  4.35168e+00 -1.25640e+01 -2.59974e+00
       O  2.94294e-01 -5.18980e+00 -7.82487e-01
       H  2.96032e-01 -6.98663e+00 -2.28053e-01
       H  1.02602e-01 -5.20427e+00 -2.59977e+00
       O  3.97042e+00 -1.21415e+01 -6.25517e+00
       H  2.45414e+00 -1.11359e+01 -6.58198e+00
       H  5.43747e+00 -1.11128e+01 -6.71526e+00
       O -2.78672e-01 -4.78194e+00 -6.25508e+00
       H -1.79498e+00 -3.77636e+00 -6.58199e+00
       H  1.18837e+00 -3.75320e+00 -6.71514e+00
       O -2.94511e-01 -9.52920e+00 -7.70081e+00
       H -1.02600e-01 -9.51466e+00 -9.51806e+00
       H -2.96005e-01 -7.73240e+00 -7.14625e+00
       O  3.95462e+00 -2.16972e+00 -7.70080e+00
       H  4.14654e+00 -2.15521e+00 -9.51804e+00
       H  3.95318e+00 -3.72879e-01 -7.14628e+00
       O  2.78541e-01 -9.93701e+00  6.63104e-01
       H -1.18842e+00 -1.09658e+01  2.03011e-01
       H  1.79493e+00 -1.09425e+01  3.36333e-01
       O  4.52773e+00 -2.57757e+00  6.63187e-01
       H  3.06068e+00 -3.60633e+00  2.03125e-01
       H  6.04402e+00 -3.58308e+00  3.36357e-01
       O  4.54332e+00 -1.25494e+01  1.30541e+01
       H  4.54518e+00 -1.43462e+01  1.36086e+01
       H  4.35169e+00 -1.25640e+01  1.12368e+01
       O  2.94281e-01 -5.18991e+00  1.30541e+01
       H  2.95995e-01 -6.98675e+00  1.36085e+01
       H  1.02570e-01 -5.20435e+00  1.12368e+01
       O  3.97044e+00 -1.21415e+01  7.58145e+00
       H  2.45413e+00 -1.11360e+01  7.25466e+00
       H  5.43745e+00 -1.11128e+01  7.12135e+00
       O -2.78601e-01 -4.78191e+00  7.58148e+00
       H -1.79495e+00 -3.77634e+00  7.25458e+00
       H  1.18839e+00 -3.75323e+00  7.12138e+00
       O -2.94501e-01 -9.52922e+00  6.13582e+00
       H -1.02637e-01 -9.51466e+00  4.31854e+00
       H -2.96013e-01 -7.73241e+00  6.69035e+00
       O  3.95462e+00 -2.16967e+00  6.13570e+00
       H  4.14656e+00 -2.15516e+00  4.31844e+00
       H  3.95315e+00 -3.72836e-01  6.69024e+00
       O  2.78636e-01  4.78206e+00 -1.31735e+01
       H -1.18832e+00  3.75329e+00 -1.36335e+01
       H  1.79499e+00  3.77651e+00 -1.35003e+01
       O  4.52773e+00  1.21415e+01 -1.31733e+01
       H  3.06066e+00  1.11127e+01 -1.36334e+01
       H  6.04403e+00  1.11360e+01 -1.35003e+01
       O  4.54332e+00  2.16970e+00 -7.82499e-01
       H  4.54510e+00  3.72872e-01 -2.27973e-01
       H  4.35161e+00  2.15513e+00 -2.59979e+00
       O  2.94188e-01  9.52923e+00 -7.82517e-01
       H  2.95976e-01  7.73239e+00 -2.28033e-01
       H  1.02486e-01  9.51470e+00 -2.59980e+00
       O  3.97041e+00  2.57752e+00 -6.25508e+00
       H  2.45414e+00  3.58307e+00 -6.58188e+00
       H  5.43747e+00  3.60626e+00 -6.71516e+00
       O -2.78677e-01  9.93714e+00 -6.25506e+00
       H -1.79497e+00  1.09427e+01 -6.58203e+00
       H  1.18838e+00  1.09659e+01 -6.71517e+00
       O -2.94451e-01  5.18990e+00 -7.70074e+00
       H -1.02475e-01  5.20442e+00 -9.51799e+00
       H -2.95971e-01  6.98671e+00 -7.14623e+00
       O  3.95453e+00  1.25494e+01 -7.70088e+00
       H  4.14650e+00  1.25638e+01 -9.51813e+00
       H  3.95314e+00  1.43462e+01 -7.14638e+00
       O  2.78666e-01  4.78190e+00  6.63181e-01
       H -1.18838e+00  3.75314e+00  2.03219e-01
       H  1.79499e+00  3.77637e+00  3.36305e-01
       O  4.52768e+00  1.21415e+01  6.63233e-01
       H  3.06065e+00  1.11127e+01  2.03130e-01
       H  6.04402e+00  1.11359e+01  3.36318e-01
       O  4.54337e+00  2.16963e+00  1.30541e+01
       H  4.54515e+00  3.72778e-01  1.36085e+01
       H  4.35165e+00  2.15511e+00  1.12368e+01
       O  2.94139e-01  9.52935e+00  1.30540e+01
       H  2.96028e-01  7.73252e+00  1.36085e+01
       H  1.02508e-01  9.51480e+00  1.12368e+01
       O  3.97044e+00  2.57752e+00  7.58146e+00
       H  2.45409e+00  3.58312e+00  7.25468e+00
       H  5.43745e+00  3.60627e+00  7.12136e+00
       O -2.78642e-01  9.93713e+00  7.58156e+00
       H -1.79498e+00  1.09426e+01  7.25459e+00
       H  1.18834e+00  1.09658e+01  7.12145e+00
       O -2.94462e-01  5.18993e+00  6.13575e+00
       H -1.02485e-01  5.20444e+00  4.31854e+00
       H -2.95928e-01  6.98677e+00  6.69031e+00
       O  3.95461e+00  1.25493e+01  6.13580e+00
       H  4.14651e+00  1.25638e+01  4.31854e+00
       H  3.95313e+00  1.43462e+01  6.69028e+00
192
# CELL(abcABC):   16.99620    29.43815    27.67315    90.00000    90.00000    90.00000  Step:          10  Bead:       4 positions{atomic_unit}  cell{atomic_unit}
       O -8.22409e+00 -9.96036e+00 -1.31563e+01
       H  7.20635e+00 -1.10073e+01 -1.35594e+01
       H -6.51601e+00 -1.09849e+01 -1.36060e+01
       O -3.97706e+00 -2.56206e+00 -1.31756e+01
       H -5.48501e+00 -3.66516e+00 -1.36434e+01
       H -2.33510e+00 -3.63946e+00 -1.35675e+01
       O -3.95659e+00 -1.25629e+01 -8.04100e-01
       H -4.13730e+00 -1.43122e+01 -4.12993e-01
       H -3.98998e+00 -1.26227e+01 -2.60879e+00
       O -8.21451e+00 -5.16820e+00 -7.80081e-01
       H -8.18858e+00 -7.00052e+00 -2.89576e-01
       H -8.60932e+00 -5.23767e+00 -2.59717e+00
       O -4.53096e+00 -1.21246e+01 -6.21602e+00
       H -6.22906e+00 -1.11291e+01 -6.62972e+00
       H -2.99442e+00 -1.10165e+01 -6.71728e+00
       O  8.20005e+00 -4.73100e+00 -6.24864e+00
       H  6.71275e+00 -3.80777e+00 -6.64278e+00
       H -7.34504e+00 -3.72039e+00 -6.77214e+00
       O  8.20616e+00 -9.53218e+00 -7.71888e+00
       H  8.50513e+00 -9.38160e+00 -9.51501e+00
       H  8.33215e+00 -7.65777e+00 -7.25831e+00
       O -4.53324e+00 -2.17803e+00 -7.71773e+00
       H -4.50107e+00 -2.07296e+00 -9.55751e+00
       H -4.56986e+00 -3.82186e-01 -7.22712e+00
       O -8.23431e+00 -9.96004e+00  6.49373e-01
       H  7.22706e+00 -1.07932e+01  2.10106e-01
       H -6.71886e+00 -1.10090e+01  3.67428e-01
       O -3.93530e+00 -2.56375e+00  6.70233e-01
       H -5.39052e+00 -3.71157e+00  2.77590e-01
       H -2.40821e+00 -3.59460e+00  1.75594e-01
       O -3.95540e+00 -1.25643e+01  1.30681e+01
       H -4.08806e+00 -1.43407e+01  1.35976e+01
       H -4.07699e+00 -1.26541e+01  1.12855e+01
       O -8.18579e+00 -5.19491e+00  1.30422e+01
       H -8.19876e+00 -7.00860e+00  1.36561e+01
       H -8.26228e+00 -5.32682e+00  1.12079e+01
       O -4.51551e+00 -1.21321e+01  7.57014e+00
       H -5.94907e+00 -1.09355e+01  7.18851e+00
       H -3.01966e+00 -1.10105e+01  7.27053e+00
       O  8.22876e+00 -4.79499e+00  7.54982e+00
       H  6.92327e+00 -3.66250e+00  7.36749e+00
       H -7.33546e+00 -3.69534e+00  7.26163e+00
       O  8.17342e+00 -9.52426e+00  6.14795e+00
       H  8.43624e+00 -9.36783e+00  4.40389e+00
       H  8.24435e+00 -7.78261e+00  6.89371e+00
       O -4.53548e+00 -2.13033e+00  6.10771e+00
       H -4.38249e+00 -2.05057e+00  4.52827e+00
       H -4.55986e+00 -4.47455e-01  6.74352e+00
       O -8.19357e+00  4.74975e+00 -1.32079e+01
       H  7.27741e+00  3.66803e+00 -1.36881e+01
       H -6.72645e+00  3.86869e+00 -1.34792e+01
       O -3.99962e+00  1.21683e+01 -1.31765e+01
       H -5.37346e+00  1.11826e+01 -1.36725e+01
       H -2.53787e+00  1.11649e+01 -1.36255e+01
       O -3.94543e+00  2.15668e+00 -8.14588e-01
       H -4.03062e+00  3.73036e-01 -4.34126e-01
       H -4.06640e+00  2.18638e+00 -2.68102e+00
       O -8.19407e+00  9.55420e+00 -7.91316e-01
       H -7.99589e+00  7.58952e+00 -2.10751e-01
       H -8.42835e+00  9.48462e+00 -2.65536e+00
       O -4.51041e+00  2.57017e+00 -6.25966e+00
       H -5.92578e+00  3.56576e+00 -6.59157e+00
       H -3.05182e+00  3.65259e+00 -6.85240e+00
       O  8.23893e+00  9.96536e+00 -6.24713e+00
       H  6.65867e+00  1.09229e+01 -6.59288e+00
       H -7.29350e+00  1.09105e+01 -6.77148e+00
       O  8.19950e+00  5.19672e+00 -7.69437e+00
       H  8.31824e+00  5.16497e+00 -9.47302e+00
       H  8.14813e+00  7.09233e+00 -7.06694e+00
       O -4.52309e+00  1.25454e+01 -7.71032e+00
       H -4.42345e+00  1.26055e+01 -9.43424e+00
       H -4.50025e+00  1.44342e+01 -7.17846e+00
       O -8.26397e+00  4.76841e+00  7.16527e-01
       H  7.33163e+00  3.73017e+00  1.87915e-01
       H -6.73653e+00  3.81924e+00  4.32722e-01
       O -3.98700e+00  1.21126e+01  6.53494e-01
       H -5.39097e+00  1.10320e+01  1.47535e-01
       H -2.41127e+00  1.11563e+01  3.72046e-01
       O -3.97359e+00  2.15229e+00  1.30675e+01
       H -4.00828e+00  4.15021e-01  1.36475e+01
       H -4.27588e+00  2.34428e+00  1.11303e+01
       O -8.20611e+00  9.52352e+00  1.30849e+01
       H -8.13513e+00  7.73476e+00  1.36810e+01
       H -8.40639e+00  9.49706e+00  1.11715e+01
       O -4.53994e+00  2.57718e+00  7.61360e+00
       H -5.99911e+00  3.49628e+00  7.34624e+00
       H -3.16465e+00  3.63294e+00  7.09652e+00
       O  8.21170e+00  9.95099e+00  7.58707e+00
       H  6.70228e+00  1.08977e+01  7.26019e+00
       H -7.30165e+00  1.11098e+01  6.98433e+00
       O  8.18262e+00  5.20035e+00  6.18919e+00
       H  8.54559e+00  5.24889e+00  4.37436e+00
       H  8.10774e+00  6.94311e+00  6.72741e+00
       O -4.50356e+00  1.25620e+01  6.13046e+00
       H -4.40005e+00  1.23999e+01  4.33118e+00
       H -4.40800e+00  1.42616e+01  6.85489e+00
       O  2.83910e-01 -9.92011e+00 -1.31962e+01
       H -1.15757e+00 -1.09705e+01 -1.35353e+01
       H  1.95045e+00 -1.10354e+01 -1.33901e+01
       O  4.55998e+00 -2.56193e+00 -1.31445e+01
       H  2.97858e+00 -3.71803e+00 -1.35198e+01
       H  5.99784e+00 -3.67965e+00 -1.34814e+01
       O  4.58081e+00 -1.25744e+01 -7.50140e-01
       H  4.62687e+00 -1.44475e+01 -9.65567e-02
       H  4.28899e+00 -1.25582e+01 -2.71840e+00
       O  2.86120e-01 -5.24276e+00 -7.88487e-01
       H  3.25226e-01 -7.04959e+00 -6.56090e-02
       H  1.17992e-01 -5.09463e+00 -2.48213e+00
       O  3.95245e+00 -1.21106e+01 -6.26397e+00
       H  2.36537e+00 -1.09976e+01 -6.49922e+00
       H  5.55997e+00 -1.11350e+01 -6.81043e+00
       O -2.72934e-01 -4.78684e+00 -6.26217e+00
       H -1.93222e+00 -3.84329e+00 -6.83401e+00
       H  1.07852e+00 -3.77912e+00 -6.81723e+00
       O -2.87522e-01 -9.56194e+00 -7.68023e+00
       H -8.62545e-02 -9.49286e+00 -9.59844e+00
       H -2.60998e-01 -7.58545e+00 -7.02883e+00
       O  3.96269e+00 -2.18582e+00 -7.69928e+00
       H  4.30544e+00 -2.40313e+00 -9.33731e+00
       H  4.00337e+00 -3.21926e-01 -7.27957e+00
       O  2.43582e-01 -9.93740e+00  6.60566e-01
       H -1.04580e+00 -1.10339e+01  3.64857e-01
       H  1.79310e+00 -1.08430e+01  4.34935e-01
       O  4.57319e+00 -2.57767e+00  6.46026e-01
       H  2.85869e+00 -3.64946e+00  1.36137e-01
       H  6.21454e+00 -3.53641e+00  2.86823e-01
       O  4.55515e+00 -1.25779e+01  1.30305e+01
       H  4.38349e+00 -1.44242e+01  1.35743e+01
       H  4.25433e+00 -1.23793e+01  1.12684e+01
       O  2.85693e-01 -5.19969e+00  1.31054e+01
       H  1.94952e-01 -7.08879e+00  1.38444e+01
       H  1.39726e-01 -5.22895e+00  1.12555e+01
       O  3.97022e+00 -1.21536e+01  7.54088e+00
       H  2.52905e+00 -1.11353e+01  7.38908e+00
       H  5.30476e+00 -1.12252e+01  7.04934e+00
       O -2.65832e-01 -4.81727e+00  7.56600e+00
       H -1.63276e+00 -3.91726e+00  7.27362e+00
       H  1.20277e+00 -3.87231e+00  7.04830e+00
       O -2.63521e-01 -9.51202e+00  6.12973e+00
       H  5.59018e-02 -9.44019e+00  4.32578e+00
       H -4.70645e-01 -7.61860e+00  6.61441e+00
       O  3.98336e+00 -2.15994e+00  6.11914e+00
       H  4.43074e+00 -2.07372e+00  4.25174e+00
       H  3.99530e+00 -4.40295e-01  6.70773e+00
       O  2.95351e-01  4.74759e+00 -1.31414e+01
       H -1.09663e+00  3.77935e+00 -1.36456e+01
       H  1.63853e+00  3.82469e+00 -1.36657e+01
       O  4.54434e+00  1.21569e+01 -1.31955e+01
       H  3.09234e+00  1.10916e+01 -1.38353e+01
       H  6.11890e+00  1.11908e+01 -1.36049e+01
       O  4.54636e+00  2.18285e+00 -7.61982e-01
       H  4.47312e+00  4.75197e-01 -3.34006e-01
       H  4.28897e+00  2.27891e+00 -2.55208e+00
       O  2.82363e-01  9.48593e+00 -7.99956e-01
       H  2.94676e-01  7.79001e+00 -1.95797e-01
       H  1.77173e-01  9.47888e+00 -2.57035e+00
       O  3.91018e+00  2.61493e+00 -6.23843e+00
       H  2.48252e+00  3.66450e+00 -6.48115e+00
       H  5.45661e+00  3.60084e+00 -6.53000e+00
       O -2.51998e-01  9.92900e+00 -6.25998e+00
       H -1.65206e+00  1.08359e+01 -6.54012e+00
       H  1.32021e+00  1.08339e+01 -6.61551e+00
       O -2.94568e-01  5.20138e+00 -7.68393e+00
       H -5.25414e-02  5.27558e+00 -9.47267e+00
       H -1.59850e-01  7.01253e+00 -7.24763e+00
       O  3.93761e+00  1.25266e+01 -7.73681e+00
       H  4.28713e+00  1.26919e+01 -9.52039e+00
       H  3.78526e+00  1.44539e+01 -7.22485e+00
       O  2.83308e-01  4.78040e+00  7.04368e-01
       H -1.15959e+00  3.71974e+00  2.03839e-01
       H  1.67767e+00  3.59074e+00  4.31284e-01
       O  4.49701e+00  1.21373e+01  6.52037e-01
       H  3.12310e+00  1.12434e+01  1.83013e-01
       H  6.13530e+00  1.11967e+01  3.17328e-01
       O  4.51413e+00  2.20170e+00  1.30648e+01
       H  4.58222e+00  4.30600e-01  1.35918e+01
       H  4.34992e+00  2.14160e+00  1.13417e+01
       O  2.87504e-01  9.51778e+00  1.30248e+01
       H  2.97611e-01  7.64196e+00  1.36382e+01
       H -7.34760e-02  9.37972e+00  1.12490e+01
       O  3.99070e+00  2.61352e+00  7.61243e+00
       H  2.45418e+00  3.28163e+00  7.37055e+00
       H  5.51869e+00  3.62834e+00  7.15266e+00
       O -2.46826e-01  9.93727e+00  7.61723e+00
       H -1.84431e+00  1.10220e+01  7.37795e+00
       H  1.20108e+00  1.09161e+01  7.25774e+00
       O -2.94579e-01  5.17610e+00  6.15946e+00
       H -5.15167e-02  5.27972e+00  4.36961e+00
       H -1.80313e-01  7.08976e+00  6.76846e+00
       O  3.97186e+00  1.25505e+01  6.13450e+00
       H  4.20728e+00  1.27617e+01  4.31786e+00
       H  3.93065e+00  1.42713e+01  6.48804e+00
192
# CELL(abcABC):   16.99620    29.43815    27.67315    90.00000    90.00000    90.00000  Step:          20  Bead:       4 positions{atomic_unit}  cell{atomic_unit}
       O -8.20110e+00 -9.97970e+00 -1.31700e+01
       H  7.24635e+00 -1.09792e+01 -1.36810e+01
       H -6.36885e+00 -1.10951e+01 -1.36254e+01
       O -3.94262e+00 -2.56965e+00 -1.31525e+01
       H -5.66627e+00 -3.80145e+00 -1.37964e+01
       H -2.25392e+00 -3.75476e+00 -1.37031e+01
       O -3.94196e+00 -1.25594e+01 -7.97679e-01
       H -4.07741e+00 -1.41674e+01 -3.47416e-01
       H -3.95032e+00 -1.25538e+01 -2.72114e+00
       O -8.24780e+00 -5.16806e+00 -8.00663e-01
       H -8.23068e+00 -6.93622e+00 -1.84754e-01
       H -8.78132e+00 -5.26600e+00 -2.41829e+00
       O -4.50774e+00 -1.20839e+01 -6.22479e+00
       H -6.15987e+00 -1.11945e+01 -6.59388e+00
       H -2.76936e+00 -1.10786e+01 -6.73600e+00
       O  8.20521e+00 -4.66821e+00 -6.26988e+00
       H  6.67747e+00 -3.69428e+00 -6.69197e+00
       H -7.47139e+00 -3.69000e+00 -6.80612e+00
       O  8.19723e+00 -9.52528e+00 -7.72421e+00
       H  8.32444e+00 -9.32675e+00 -9.38766e+00
       H  8.21879e+00 -7.62145e+00 -7.36490e+00
       O -4.55658e+00 -2.17957e+00 -7.73611e+00
       H -4.43825e+00 -2.20543e+00 -9.47371e+00
       H -4.70501e+00 -3.95385e-01 -7.30153e+00
       O -8.26960e+00 -9.92154e+00  6.49534e-01
       H  6.94125e+00 -1.08053e+01  3.46147e-01
       H -6.74752e+00 -1.09604e+01  3.00235e-01
       O -3.92120e+00 -2.58800e+00  6.77683e-01
       H -5.49636e+00 -3.84135e+00  2.74106e-01
       H -2.50547e+00 -3.70422e+00  2.15178e-01
       O -3.93238e+00 -1.25528e+01  1.30777e+01
       H -4.40825e+00 -1.43567e+01  1.36247e+01
       H -3.96741e+00 -1.27989e+01  1.13168e+01
       O -8.19434e+00 -5.20291e+00  1.30877e+01
       H -8.27294e+00 -7.04450e+00  1.36269e+01
       H -8.10442e+00 -5.24271e+00  1.13160e+01
       O -4.49486e+00 -1.21607e+01  7.60072e+00
       H -5.94981e+00 -1.09874e+01  7.20463e+00
       H -2.95680e+00 -1.09860e+01  7.42586e+00
       O  8.22137e+00 -4.75566e+00  7.51394e+00
       H  6.93325e+00 -3.69637e+00  7.39623e+00
       H -7.26581e+00 -3.74264e+00  7.18685e+00
       O  8.19668e+00 -9.52773e+00  6.12950e+00
       H  8.42935e+00 -9.54384e+00  4.37089e+00
       H  8.21116e+00 -7.88985e+00  7.07222e+00
       O -4.53854e+00 -2.17161e+00  6.13755e+00
       H -4.44623e+00 -2.11154e+00  4.64729e+00
       H -4.41362e+00 -4.34017e-01  6.93446e+00
       O -8.20201e+00  4.72753e+00 -1.32306e+01
       H  7.26107e+00  3.64287e+00 -1.36022e+01
       H -6.83116e+00  3.86369e+00 -1.35013e+01
       O -3.97177e+00  1.22057e+01 -1.31826e+01
       H -5.35518e+00  1.11055e+01 -1.36548e+01
       H -2.55006e+00  1.12376e+01 -1.35601e+01
       O -3.89208e+00  2.14717e+00 -8.29104e-01
       H -4.15348e+00  3.26630e-01 -2.90872e-01
       H -4.08357e+00  1.99615e+00 -2.82021e+00
       O -8.19477e+00  9.55779e+00 -7.93075e-01
       H -7.96413e+00  7.64317e+00 -2.08413e-01
       H -8.56242e+00  9.51558e+00 -2.51131e+00
       O -4.53354e+00  2.56237e+00 -6.23716e+00
       H -5.88038e+00  3.39417e+00 -6.48914e+00
       H -3.14636e+00  3.73057e+00 -7.05687e+00
       O  8.19672e+00  9.97030e+00 -6.21738e+00
       H  6.54719e+00  1.09112e+01 -6.56869e+00
       H -7.47688e+00  1.09554e+01 -6.83881e+00
       O  8.20203e+00  5.21789e+00 -7.67278e+00
       H  8.22775e+00  5.22513e+00 -9.46108e+00
       H  8.08355e+00  7.15616e+00 -7.21538e+00
       O -4.52522e+00  1.25018e+01 -7.69701e+00
       H -4.58425e+00  1.25227e+01 -9.52277e+00
       H -4.54314e+00  1.45462e+01 -7.20300e+00
       O -8.29867e+00  4.77549e+00  7.26936e-01
       H  7.28857e+00  3.75441e+00  4.59952e-02
       H -6.85326e+00  3.64312e+00  4.00980e-01
       O -3.99734e+00  1.21059e+01  6.17856e-01
       H -5.44595e+00  1.10166e+01  3.72421e-01
       H -2.33692e+00  1.10537e+01  4.70179e-01
       O -3.99977e+00  2.16172e+00  1.30331e+01
       H -4.05614e+00  4.26176e-01  1.37427e+01
       H -4.28544e+00  2.42890e+00  1.11477e+01
       O -8.18146e+00  9.52414e+00  1.30662e+01
       H -8.06012e+00  7.73916e+00  1.35598e+01
       H -8.29960e+00  9.54804e+00  1.11379e+01
       O -4.51975e+00  2.60284e+00  7.58030e+00
       H -6.12634e+00  3.47513e+00  7.51636e+00
       H -3.20106e+00  3.47364e+00  7.28431e+00
       O  8.21324e+00  9.93727e+00  7.55303e+00
       H  6.70365e+00  1.10448e+01  7.25322e+00
       H -7.26334e+00  1.10148e+01  7.10871e+00
       O  8.14800e+00  5.18690e+00  6.17019e+00
       H  8.61025e+00  5.27316e+00  4.30576e+00
       H  8.08521e+00  7.05457e+00  6.76777e+00
       O -4.53067e+00  1.25530e+01  6.16788e+00
       H -4.47902e+00  1.21612e+01  4.30080e+00
       H -4.41514e+00  1.42490e+01  6.68223e+00
       O  3.12744e-01 -9.90919e+00 -1.32305e+01
       H -1.23166e+00 -1.10272e+01 -1.35553e+01
       H  1.94552e+00 -1.10082e+01 -1.34386e+01
       O  4.53369e+00 -2.51389e+00 -1.31319e+01
       H  2.99960e+00 -3.89134e+00 -1.35304e+01
       H  5.99546e+00 -3.68793e+00 -1.35082e+01
       O  4.59691e+00 -1.25750e+01 -7.64297e-01
       H  4.62499e+00 -1.44718e+01 -2.50654e-01
       H  4.35015e+00 -1.25913e+01 -2.70666e+00
       O  2.41329e-01 -5.24713e+00 -7.65030e-01
       H  1.31533e-01 -7.14473e+00 -1.78940e-01
       H  1.37590e-01 -5.07455e+00 -2.50554e+00
       O  3.92239e+00 -1.21482e+01 -6.29570e+00
       H  2.30644e+00 -1.09498e+01 -6.38026e+00
       H  5.44388e+00 -1.12985e+01 -6.90185e+00
       O -3.02348e-01 -4.77357e+00 -6.29702e+00
       H -1.96862e+00 -3.95274e+00 -6.76263e+00
       H  1.15699e+00 -3.86814e+00 -6.88812e+00
       O -3.37905e-01 -9.52185e+00 -7.68808e+00
       H -6.92061e-02 -9.48706e+00 -9.44759e+00
       H -3.84819e-01 -7.71033e+00 -7.22698e+00
       O  3.92756e+00 -2.22411e+00 -7.74260e+00
       H  4.24570e+00 -2.60852e+00 -9.31422e+00
       H  4.13562e+00 -3.78431e-01 -7.38743e+00
       O  2.66667e-01 -9.97395e+00  6.41844e-01
       H -8.90812e-01 -1.10975e+01  2.51242e-01
       H  1.83369e+00 -1.09272e+01  4.44548e-01
       O  4.63114e+00 -2.60162e+00  6.49984e-01
       H  2.75454e+00 -3.64249e+00  1.82794e-01
       H  6.14701e+00 -3.50653e+00  3.05787e-01
       O  4.52525e+00 -1.25626e+01  1.30573e+01
       H  4.41393e+00 -1.43246e+01  1.36225e+01
       H  4.23256e+00 -1.25604e+01  1.13684e+01
       O  2.80144e-01 -5.20900e+00  1.31155e+01
       H  7.60993e-02 -7.06315e+00  1.37119e+01
       H  1.57463e-01 -5.26359e+00  1.11224e+01
       O  3.96525e+00 -1.21088e+01  7.55036e+00
       H  2.71005e+00 -1.11098e+01  7.34211e+00
       H  5.18021e+00 -1.11399e+01  6.94644e+00
       O -2.67651e-01 -4.81540e+00  7.54576e+00
       H -1.69947e+00 -3.82843e+00  7.24598e+00
       H  1.19997e+00 -3.69795e+00  7.14945e+00
       O -2.66439e-01 -9.52645e+00  6.10261e+00
       H  1.15392e-02 -9.61414e+00  4.28919e+00
       H -4.91303e-01 -7.68373e+00  6.65657e+00
       O  4.01932e+00 -2.15088e+00  6.10502e+00
       H  4.31777e+00 -1.98493e+00  4.34855e+00
       H  4.06074e+00 -2.84372e-01  6.68584e+00
       O  2.31250e-01  4.73847e+00 -1.31626e+01
       H -1.09615e+00  3.87049e+00 -1.36878e+01
       H  1.57507e+00  3.84342e+00 -1.37825e+01
       O  4.53563e+00  1.21619e+01 -1.31982e+01
       H  3.07402e+00  1.10664e+01 -1.40620e+01
       H  6.00581e+00  1.11237e+01 -1.37283e+01
       O  4.57817e+00  2.15531e+00 -7.05421e-01
       H  4.43386e+00  4.96617e-01 -3.58827e-01
       H  4.33080e+00  2.21180e+00 -2.61640e+00
       O  2.89337e-01  9.46375e+00 -8.29934e-01
       H  3.00246e-01  7.75577e+00 -6.59760e-02
       H  1.62532e-01  9.51633e+00 -2.54994e+00
       O  3.88917e+00  2.59536e+00 -6.22418e+00
       H  2.68631e+00  3.62055e+00 -6.45334e+00
       H  5.45664e+00  3.60828e+00 -6.47285e+00
       O -2.42457e-01  9.89629e+00 -6.29279e+00
       H -1.70370e+00  1.07439e+01 -6.51659e+00
       H  1.28930e+00  1.08048e+01 -6.55569e+00
       O -3.21021e-01  5.20051e+00 -7.67786e+00
       H -1.89758e-01  5.38020e+00 -9.51345e+00
       H -2.55719e-01  7.09728e+00 -7.09924e+00
       O  3.91766e+00  1.25804e+01 -7.72718e+00
       H  4.30120e+00  1.25742e+01 -9.61915e+00
       H  3.87189e+00  1.42924e+01 -7.10906e+00
       O  2.64475e-01  4.76714e+00  6.67212e-01
       H -1.11611e+00  3.58396e+00  1.78658e-01
       H  1.77611e+00  3.61489e+00  3.64610e-01
       O  4.49243e+00  1.21250e+01  7.18043e-01
       H  2.98887e+00  1.12682e+01  3.12162e-01
       H  6.15555e+00  1.11580e+01  1.88123e-01
       O  4.53584e+00  2.25383e+00  1.30409e+01
       H  4.51095e+00  3.48510e-01  1.37823e+01
       H  4.32548e+00  2.10172e+00  1.12982e+01
       O  2.96079e-01  9.50480e+00  1.30211e+01
       H  2.78354e-01  7.61426e+00  1.35881e+01
       H -1.88778e-01  9.41180e+00  1.12056e+01
       O  3.97029e+00  2.60247e+00  7.59377e+00
       H  2.35012e+00  3.29924e+00  7.41401e+00
       H  5.50517e+00  3.55310e+00  7.18846e+00
       O -2.75397e-01  9.94943e+00  7.67085e+00
       H -1.76726e+00  1.09817e+01  7.46782e+00
       H  1.23561e+00  1.09845e+01  6.89592e+00
       O -3.49686e-01  5.19533e+00  6.12323e+00
       H -1.05737e-01  5.29319e+00  4.36904e+00
       H -8.91216e-02  7.14374e+00  6.79524e+00
       O  3.97796e+00  1.25843e+01  6.12651e+00
       H  4.31512e+00  1.28353e+01  4.27707e+00
       H  3.81441e+00  1.44357e+01  6.55359e+00
192
# CELL(abcABC):   16.99620    29.43815    27.67315    90.00000    90.00000    90.00000  Step:          30  Bead:       4 positions{atomic_unit}  cell{atomic_unit}
       O -8.19746e+00 -9.99643e+00 -1.31383e+01
       H  7.41696e+00 -1.08985e+01 -1.35988e+01
       H -6.33252e+00 -1.11351e+01 -1.35452e+01
       O -3.92685e+00 -2.60076e+00 -1.31668e+01
       H -5.72053e+00 -3.93502e+00 -1.39485e+01
       H -2.29336e+00 -3.78197e+00 -1.37202e+01
       O -3.94317e+00 -1.25510e+01 -7.79532e-01
       H -3.99061e+00 -1.41032e+01 -3.44131e-01
       H -3.84264e+00 -1.25112e+01 -2.58679e+00
       O -8.24144e+00 -5.17014e+00 -7.81395e-01
       H -8.37787e+00 -6.96697e+00 -2.58684e-01
       H -8.85500e+00 -5.11904e+00 -2.46862e+00
       O -4.49258e+00 -1.20919e+01 -6.25314e+00
       H -6.20779e+00 -1.11823e+01 -6.62195e+00
       H -2.80513e+00 -1.11829e+01 -6.90578e+00
       O  8.20762e+00 -4.70784e+00 -6.24697e+00
       H  6.81129e+00 -3.64470e+00 -6.67886e+00
       H -7.57689e+00 -3.70063e+00 -6.66944e+00
       O  8.20096e+00 -9.54923e+00 -7.69980e+00
       H  8.32632e+00 -9.37441e+00 -9.44983e+00
       H  8.00955e+00 -7.71822e+00 -7.27170e+00
       O -4.54698e+00 -2.20753e+00 -7.67579e+00
       H -4.47957e+00 -2.27509e+00 -9.41749e+00
       H -4.70064e+00 -3.86446e-01 -7.30442e+00
       O -8.25039e+00 -9.94022e+00  6.74698e-01
       H  6.98778e+00 -1.08027e+01  2.87013e-01
       H -6.80646e+00 -1.08945e+01  1.55197e-02
       O -3.94098e+00 -2.59453e+00  7.02833e-01
       H -5.42332e+00 -4.01528e+00  4.44731e-01
       H -2.54410e+00 -3.86137e+00  2.74941e-01
       O -3.89297e+00 -1.25262e+01  1.31416e+01
       H -4.26558e+00 -1.43157e+01  1.34414e+01
       H -4.17984e+00 -1.29255e+01  1.12543e+01
       O -8.16612e+00 -5.25534e+00  1.30539e+01
       H -8.31392e+00 -7.20062e+00  1.36920e+01