192
# CELL(abcABC):   16.99620    29.43815    27.67315    90.00000    90.00000    90.00000  Step:           0  Bead:      17 velocities{atomic_unit}  cell{atomic_unit}
       O  2.48051e-04  2.10692e-04  3.97668e-04
       H -2.54021e-03  2.25626e-03 -8.95819e-04
       H -4.40724e-03 -7.20026e-03 -2.29169e-03
       O  9.69643e-04  3.69449e-04  2.74698e-04
       H -2.72390e-05 -1.60783e-03  3.56797e-03
       H  3.86588e-03 -2.69303e-03  6.97972e-04
       O -3.36088e-04  1.60811e-03 -4.73112e-04
       H -6.73678e-03 -3.71380e-03 -3.70598e-03
       H -3.58689e-03 -4.85514e-03 -1.02539e-03
       O -3.03309e-05 -4.15940e-04  5.76975e-04
       H  2.13110e-04  3.22054e-03 -2.39055e-03
       H -4.60103e-03  2.45226e-03  1.07609e-03
       O  1.76695e-03 -2.54754e-03 -3.54142e-04
       H  5.59564e-03  4.11360e-03  1.73345e-03
       H -2.86214e-03  1.05567e-03  4.38650e-03
       O  1.62397e-03 -1.18057e-03 -2.36301e-04
       H  7.25257e-03 -6.96825e-03  1.76629e-03
       H  4.81620e-03  1.28573e-03 -4.21261e-03
       O  3.20869e-04  7.76690e-05 -3.00133e-04
       H -3.77018e-03 -2.01241e-03 -5.94115e-03
       H  5.67776e-06 -6.85032e-03  4.74607e-03
       O -2.13849e-04  3.31874e-04 -1.35914e-03
       H  1.55998e-03  3.90620e-03 -7.30333e-03
       H -6.88164e-03 -2.00150e-03  3.15815e-04
       O -4.12303e-05  2.31445e-04 -7.67993e-04
       H  4.68549e-03 -1.21920e-03  1.22094e-03
       H -1.21510e-03  1.66525e-03  4.14605e-03
       O  1.39271e-03 -6.79893e-04  3.22007e-04
       H -6.34016e-03  2.32706e-03 -2.27251e-03
       H -2.74376e-03 -5.30185e-03 -2.53943e-03
       O  4.95039e-04  1.45787e-03  2.63829e-04
       H -3.34827e-03 -5.41332e-03 -1.54713e-03
       H  2.45320e-03 -5.28663e-03  4.65010e-03
       O -5.72709e-04 -2.05562e-04 -2.73127e-04
       H  3.98686e-04  1.53758e-03 -1.12735e-03
       H  1.00471e-03  2.93732e-03 -6.51583e-03
       O -1.14218e-03  6.30867e-05  7.07523e-04
       H  2.02729e-03  5.72934e-03 -3.18192e-03
       H  2.05074e-04  5.70723e-03 -6.66307e-03
       O  1.02666e-03  9.63310e-04  7.80514e-04
       H  1.04656e-03 -1.09647e-02  3.61371e-03
       H  2.85963e-03  3.28004e-03  1.88934e-03
       O  4.90161e-04 -2.51804e-04 -7.77937e-05
       H  4.34882e-03 -2.84864e-03  7.75161e-04
       H  6.49153e-03 -1.68009e-03 -1.38798e-03
       O  5.78329e-04  2.12523e-04  1.38186e-03
       H -3.94824e-03  4.30622e-03  2.78560e-03
       H  1.03166e-03  3.47969e-03  5.14824e-03
       O -2.06198e-05 -7.92683e-04 -4.92964e-04
       H -1.69845e-03 -1.36728e-03  8.14098e-03
       H  4.61867e-03 -3.97398e-03  7.19147e-04
       O  1.85283e-04  5.57530e-04  1.26417e-03
       H -3.96935e-04  1.75366e-03 -1.90113e-03
       H  1.54877e-03  6.16922e-04  4.16412e-03
       O -1.29707e-03 -1.17459e-03 -1.48341e-03
       H -3.25739e-03  1.15084e-03 -3.43912e-03
       H -8.94658e-03 -4.32122e-03 -1.13143e-02
       O  1.74849e-03  5.20034e-04 -6.62983e-04
       H -1.97439e-03 -4.90619e-03  6.06659e-04
       H  2.37233e-03 -2.33132e-03  5.19068e-05
       O  1.83085e-04 -7.39639e-04 -1.54961e-04
       H  3.60742e-03  4.19305e-03 -2.34987e-03
       H  1.68106e-03 -6.37067e-04  3.48468e-03
       O -3.99569e-04 -8.05028e-04  1.37608e-03
       H -1.98574e-04 -8.70881e-04  3.82297e-03
       H -1.84237e-03  2.75012e-03  3.64250e-03
       O  1.16279e-03 -7.66234e-04  3.43807e-04
       H  2.68087e-03  2.03553e-03 -2.49963e-03
       H -4.67413e-03 -5.99575e-04  3.41864e-03
       O  1.35266e-03  1.07642e-03 -1.44512e-03
       H -3.47198e-03  1.73683e-03  1.51108e-03
       H -2.31459e-03  4.54107e-03  1.35362e-03
       O -1.30105e-05  7.20188e-04 -8.92453e-04
       H  3.11558e-03  4.69760e-03  2.80098e-03
       H  6.68814e-03 -3.84276e-03  1.51292e-03
       O -4.88978e-04  1.81255e-04  8.39016e-05
       H -5.25153e-03 -5.70202e-04  2.13461e-03
       H  2.35601e-03  1.95300e-03 -2.77043e-03
       O  1.75743e-03  8.52464e-05  2.67849e-05
       H -2.22087e-03  1.69954e-04 -4.04961e-03
       H -2.90856e-03 -4.98734e-03  1.61356e-03
       O -2.03247e-03 -2.67035e-04  6.12500e-04
       H  9.41356e-04  8.30123e-04  6.16594e-06
       H -3.26648e-03 -6.27960e-04 -1.31130e-03
       O -2.02479e-04 -1.50097e-04 -7.05196e-04
       H -9.42145e-06 -1.74680e-04 -3.27186e-03
       H -4.77340e-03  4.33634e-03 -8.89890e-03
       O -7.30160e-04  1.04984e-03 -1.23807e-03
       H  2.18557e-03 -4.74511e-03 -4.11158e-03
       H -8.12726e-05 -2.62989e-03  1.66912e-03
       O  3.77792e-04 -6.62450e-04 -8.92804e-05
       H  1.35391e-03  2.93166e-03  5.53583e-03
       H -4.56582e-03  7.07161e-04  5.57279e-04
       O -2.01789e-04  9.83141e-04  9.83393e-04
       H -3.05817e-03 -4.17161e-05  6.12221e-03
       H -8.79792e-04  4.50297e-03  3.01373e-03
       O  1.72454e-04 -5.01656e-04 -6.41442e-04
       H -1.87694e-03 -3.45249e-04 -2.27464e-03
       H  1.45428e-03  3.82429e-03  6.00302e-03
       O  2.04265e-03  5.95863e-04  1.19606e-03
       H  5.07616e-03  4.25443e-03  3.79529e-03
       H -3.49032e-04  8.04060e-03  1.07849e-02
       O  3.55136e-04 -9.00216e-04  8.80942e-04
       H -9.27845e-05  1.83431e-04 -5.50023e-03
       H  5.66662e-03  7.26811e-04 -2.61931e-03
       O -1.29365e-03  2.81554e-04  2.96781e-04
       H -5.31145e-03 -4.40991e-03  1.80790e-04
       H  1.89315e-03  1.60128e-03  2.71150e-03
       O  6.68060e-04 -3.79197e-04 -1.43518e-03
       H  4.30649e-04  2.79671e-03  5.81205e-04
       H  4.39338e-03  1.18991e-03 -3.61001e-03
       O  3.63233e-04 -2.29445e-06  1.41915e-04
       H -3.10064e-03 -4.92811e-03  2.81709e-03
       H -8.85159e-04  6.14408e-03 -4.66944e-03
       O -7.28175e-04 -2.14524e-04 -2.39520e-06
       H  8.10194e-04  4.23631e-03  3.59461e-03
       H  2.73378e-03  3.96607e-03 -4.11820e-03
       O  6.16529e-05 -6.22013e-04 -6.84552e-04
       H  3.92823e-04 -6.49107e-04  2.83027e-03
       H  2.05173e-03  2.44376e-03  6.28358e-03
       O -8.25853e-04 -9.83664e-04 -3.46620e-05
       H  1.18110e-03 -1.67803e-03 -8.45444e-04
       H  6.82137e-04 -3.35806e-04  2.85788e-03
       O -4.64222e-04 -2.45124e-04 -1.67846e-04
       H -3.00615e-03  8.04769e-04 -5.82939e-04
       H -6.83663e-04  8.85977e-03 -7.88468e-04
       O  1.45818e-03  1.51249e-03 -5.98338e-04
       H  3.48911e-03  3.26486e-03 -2.21079e-03
       H  1.33235e-03  2.25649e-03 -5.17818e-03
       O -1.38443e-03  1.10265e-03 -1.32796e-03
       H  7.45554e-03  7.96038e-03 -2.11527e-03
       H  3.06268e-03 -5.86305e-03  6.98107e-03
       O -3.02393e-04  1.15512e-03  6.20076e-05
       H -5.82750e-03  6.13212e-03  1.33861e-03
       H  5.16552e-03 -1.55693e-03 -9.48816e-04
       O -4.10824e-04  9.17108e-04 -1.06180e-03
       H  1.66218e-03  1.92581e-03 -5.19849e-03
       H  3.38236e-03  2.23893e-03  6.62017e-03
       O  6.41416e-04 -6.30733e-04  1.34205e-03
       H  4.75564e-03 -4.53848e-04  6.26342e-03
       H -3.13567e-03  5.73974e-03  6.74890e-04
       O -2.92363e-04 -3.28653e-04  7.54953e-04
       H -3.73209e-03 -6.58385e-03  4.37994e-03
       H -1.89893e-03 -1.00736e-03 -4.53603e-03
       O  1.15635e-03  1.00083e-03  1.23280e-03
       H  1.91411e-03  4.31669e-03  4.49038e-03
       H  1.25282e-03  1.12046e-04 -2.68235e-03
       O  9.80011e-04  3.74642e-04 -1.03447e-03
       H  2.20789e-03 -9.68844e-04  2.51877e-03
       H  2.49779e-03 -2.81922e-04 -8.08294e-04
       O  7.47438e-04 -2.88579e-04  5.39961e-04
       H -3.28586e-03  3.24523e-03  1.76997e-03
       H  2.16542e-03  4.15082e-03  4.22675e-03
       O -3.05132e-05  2.97831e-05  8.96509e-04
       H  5.51786e-03  1.35953e-03  1.42153e-03
       H -1.66649e-03 -2.81169e-03  3.73607e-03
       O -7.44851e-04  6.52953e-04  3.22705e-04
       H  3.23957e-03  3.66522e-03  3.89964e-03
       H -3.26271e-04 -3.04372e-03  1.29933e-03
       O  5.62887e-04  3.25391e-04 -2.02361e-03
       H -1.52488e-03  9.17080e-03 -2.79338e-03
       H  4.71478e-04  9.62879e-04 -6.60216e-03
       O  3.52830e-04 -9.41113e-04 -5.85557e-04
       H  4.22756e-03 -2.49761e-03 -2.76250e-03
       H  4.90815e-03  7.52902e-04 -1.51392e-03
       O  7.73938e-04  2.86924e-04  1.76597e-04
       H  5.28790e-03 -1.20578e-03  1.67371e-03
       H  7.21185e-03 -2.20344e-03  1.74232e-03
       O  3.71408e-04 -1.04506e-03  3.09334e-05
       H -2.29343e-03 -2.43830e-03 -5.24242e-03
       H  1.51004e-03 -2.87425e-03  6.49861e-04
       O  4.87098e-04 -2.59918e-04  4.06790e-04
       H  4.30461e-03 -2.72183e-03 -1.37369e-03
       H  6.50197e-03 -2.06746e-03 -6.31674e-03
       O -1.95698e-03  6.18782e-04 -1.94742e-03
       H -3.00871e-03 -1.77345e-03  4.97531e-03
       H  7.56446e-04  3.34008e-03 -3.19946e-03
       O  4.68147e-04  7.10320e-04  7.23792e-04
       H  5.33295e-03 -2.09920e-03 -4.28829e-03
       H  1.94487e-03 -1.58164e-03 -1.17711e-03
       O -1.06061e-03  5.86425e-04  6.02672e-04
       H -1.31753e-03  7.37786e-04  8.79670e-04
       H  9.16233e-04  1.73754e-03 -2.22330e-03
       O -6.85620e-04 -2.31864e-03  9.09371e-04
       H -4.14523e-03 -3.48658e-04  5.52051e-03
       H -1.00313e-03 -1.69844e-03 -1.57188e-03
       O -1.04404e-03 -5.45639e-04 -1.95992e-04
       H -1.31066e-03  9.35283e-04 -1.63288e-03
       H  4.76357e-04 -2.70268e-03 -4.47820e-03
       O  3.89319e-04 -1.17506e-03 -1.84352e-03
       H -3.83941e-03  6.31805e-03  3.16779e-03
       H  2.11345e-03 -5.89040e-03  6.05947e-04
192
# CELL(abcABC):   16.99620    29.43815    27.67315    90.00000    90.00000    90.00000  Step:          10  Bead:      17 velocities{atomic_unit}  cell{atomic_unit}
       O  1.12869e-03 -2.57635e-04  4.90041e-04
       H -2.15210e-03 -5.38274e-03 -9.53965e-04
       H -4.02062e-03 -6.98870e-03 -4.14290e-03
       O -1.05315e-03 -7.58766e-04  4.48363e-04
       H -2.29754e-03 -1.65335e-03 -5.33358e-03
       H -4.20582e-03  3.29720e-03 -1.66242e-04
       O -9.08773e-05  3.83341e-04 -7.52349e-04
       H -2.65895e-03  4.68861e-03 -4.66618e-03
       H -1.86240e-03 -1.46362e-03 -6.58909e-04
       O  5.04538e-04  1.12123e-03 -4.34941e-04
       H -1.37619e-03  2.31251e-03 -2.71190e-03
       H  1.49540e-03  4.62484e-03 -2.57303e-03
       O  1.02692e-03  1.13087e-03 -9.33769e-04
       H  7.47024e-04  5.98160e-03 -7.89435e-03
       H  4.84029e-03 -6.46560e-03 -4.62763e-03
       O -4.64914e-04  1.46841e-04 -1.26704e-03
       H -4.79411e-03  5.02004e-03 -1.28627e-03
       H  9.25571e-04  9.04151e-04  1.33189e-03
       O  9.38809e-05  1.16974e-04 -6.23393e-04
       H  5.86156e-03  7.64001e-03  7.13635e-03
       H -8.57029e-04  3.93923e-03  8.79013e-04
       O  3.03668e-04 -3.39863e-04 -2.05341e-04
       H -1.72444e-03  1.11736e-03  5.51224e-03
       H -4.93378e-03 -2.37886e-03  5.83910e-03
       O  6.69704e-04 -1.35736e-04  1.03863e-03
       H  2.20692e-03  1.79123e-03  1.40727e-03
       H  2.67462e-03  5.03732e-03 -4.16053e-03
       O  1.25037e-04  3.40120e-04  1.08310e-03
       H -2.46016e-03  2.35494e-03  3.57540e-03
       H  4.02551e-03 -5.52770e-03  3.39734e-03
       O  1.86038e-04  1.58071e-03  1.07907e-03
       H  5.59631e-03  4.23132e-03 -3.02137e-03
       H  1.48735e-03 -1.12575e-03  1.68195e-03
       O  7.82675e-04  1.41848e-03  1.60340e-04
       H -1.02626e-03 -2.94442e-03 -3.84092e-03
       H  1.66409e-03  5.49301e-03 -3.10569e-03
       O -3.69716e-04 -3.08480e-04 -1.54880e-03
       H -3.35554e-05  1.58282e-03 -4.40677e-03
       H  1.59520e-03  3.53203e-03  5.22769e-03
       O  1.43593e-04  1.08702e-03  4.80466e-04
       H  1.37889e-03 -2.18149e-03  1.64641e-03
       H  2.11277e-03  5.50663e-03  2.94110e-03
       O  3.91160e-04 -1.55142e-04 -1.12516e-03
       H  3.43722e-04  4.19302e-03 -2.11651e-03
       H -4.65328e-03  5.25684e-04 -4.14261e-03
       O -1.45464e-03 -8.44609e-05 -6.34478e-04
       H -1.46600e-04 -1.01261e-02  4.73116e-04
       H -2.37897e-03  1.36697e-03  8.59386e-04
       O -7.97193e-05 -4.77389e-04 -2.08669e-03
       H -4.16940e-04  3.76511e-03 -4.50415e-03
       H  6.05832e-03  1.28997e-03 -6.95220e-04
       O  9.98291e-04  8.00751e-04  1.03661e-04
       H  2.13889e-03 -1.57970e-03  3.40501e-03
       H  2.72748e-03  1.75162e-03  6.91146e-03
       O -5.84453e-04  1.24077e-05 -5.40508e-04
       H  1.36241e-06 -3.80760e-03  8.22261e-03
       H -2.38813e-03  1.16437e-03  6.30577e-03
       O -6.23317e-04  1.29754e-05 -1.24950e-03
       H  1.18514e-03 -3.38171e-03 -4.39432e-04
       H  1.42345e-03  2.71840e-03  2.35114e-03
       O  6.53207e-05 -6.89357e-04  1.39111e-03
       H -6.90077e-03  4.27460e-03  4.25891e-03
       H  1.22650e-03  2.98788e-03 -9.15358e-04
       O -1.19118e-03 -6.84426e-04 -3.09285e-04
       H  1.54107e-03  3.63604e-03  1.88526e-03
       H -8.23542e-03  2.94797e-03  1.27623e-03
       O -1.50746e-04 -5.13857e-04 -3.11275e-04
       H -1.18903e-03 -1.17927e-03 -9.78569e-03
       H -1.37039e-03  1.30990e-03  8.72379e-05
       O  7.88563e-05  6.12165e-04 -1.41101e-03
       H  6.96610e-04  4.67355e-03 -2.41623e-03
       H -3.36221e-03  8.33567e-03 -6.18770e-03
       O  3.73773e-04  5.63663e-04 -2.55086e-04
       H -1.57079e-03 -2.97810e-03 -1.07887e-03
       H -3.03367e-03 -3.55248e-03  4.82074e-03
       O -4.80079e-04  8.50823e-04 -1.69859e-03
       H -2.97810e-03 -8.04065e-05 -2.85927e-03
       H  8.66197e-04  3.86777e-03 -9.46193e-03
       O -5.77253e-04  1.47220e-03  2.38112e-03
       H  6.48006e-03  1.45649e-05 -2.30492e-04
       H -3.28622e-04 -8.20080e-04  3.40648e-03
       O -8.29976e-05 -1.20488e-03 -1.49466e-04
       H -6.49072e-03 -2.13658e-03  9.03217e-04
       H  6.24013e-03  1.11371e-03  4.86851e-04
       O -8.57542e-04 -7.16695e-04 -1.55828e-03
       H  2.12579e-03 -2.19527e-03 -2.68540e-03
       H  2.11882e-03  1.88695e-03 -4.58395e-03
       O  9.35179e-04 -6.07551e-04  1.98232e-03
       H -7.51536e-03  5.77348e-03 -4.85746e-05
       H  4.88893e-03 -2.01041e-03 -2.12706e-03
       O -7.82194e-04 -5.52076e-04  2.31788e-03
       H  1.66958e-04  2.59942e-03 -4.12009e-03
       H -6.07935e-03  4.63883e-03  3.77405e-03
       O  5.68368e-04  2.98775e-04  8.54141e-04
       H -2.29064e-03 -6.92595e-03 -3.88759e-03
       H  3.29736e-03 -1.76484e-03 -7.09709e-04
       O  3.19775e-04 -1.19479e-03 -1.20145e-03
       H  3.97445e-03  4.65519e-03 -6.62797e-03
       H  1.88570e-03 -2.44451e-03  3.65446e-04
       O  8.50807e-04 -1.02938e-03 -6.09394e-04
       H -7.71445e-05 -1.06148e-02 -1.13567e-03
       H  9.01841e-03 -4.72723e-03  4.69163e-04
       O  2.35261e-04  2.08398e-04 -4.57494e-04
       H -3.21885e-03  3.46580e-03 -4.90457e-03
       H  6.48488e-03 -6.04639e-04 -1.68854e-03
       O  1.11012e-03 -2.66220e-04 -1.38428e-04
       H  2.24933e-03 -1.35944e-04 -6.09716e-04
       H  3.80818e-03  7.57509e-04  3.39656e-03
       O  4.57482e-04 -3.60281e-04  8.53974e-04
       H -1.88681e-03  2.63275e-05 -1.04341e-04
       H -1.34612e-03  3.47300e-03  5.67570e-04
       O  3.26702e-04 -8.24325e-05 -3.34984e-04
       H -7.95414e-04 -3.75906e-03 -5.12312e-04
       H  2.51720e-04 -2.26425e-03 -7.21141e-03
       O -7.25448e-05 -1.37877e-03 -2.20957e-04
       H -7.51652e-04  2.55123e-03 -1.37832e-03
       H -3.64733e-03 -3.08033e-03  4.90089e-05
       O  1.75873e-04 -1.05771e-04  6.74547e-04
       H  5.01864e-03  7.72447e-04 -5.20802e-03
       H -1.54078e-03 -3.79175e-03  1.50906e-03
       O -4.27056e-04  1.31502e-03  4.19378e-04
       H  6.02102e-04 -6.06351e-03  7.42101e-03
       H -2.12503e-03  2.85066e-03 -1.15758e-03
       O  1.09770e-04  2.08016e-03 -6.56513e-04
       H -3.87751e-03  3.97405e-03  1.73492e-03
       H  7.39287e-04  6.87252e-03 -1.44932e-03
       O -6.77771e-04  1.20572e-03 -5.51618e-04
       H -2.27101e-04 -3.47684e-03 -1.13448e-03
       H -6.83214e-03 -2.74283e-03  1.04370e-03
       O -8.19130e-04 -5.80202e-05  6.07138e-04
       H -2.69290e-03 -1.36910e-03  5.35981e-03
       H  3.98822e-03  2.41236e-03  5.67725e-04
       O -4.25067e-04  5.21881e-04  1.77127e-04
       H -3.22664e-03  3.95687e-03 -2.95066e-03
       H -3.44807e-03 -7.09571e-03 -2.17048e-03
       O  1.73490e-04 -4.03474e-04  4.30689e-04
       H -6.80403e-04 -1.36132e-03 -3.55541e-04
       H -4.25270e-03 -2.30338e-03  1.97319e-03
       O  1.59699e-04 -5.91762e-04 -2.59094e-04
       H  3.33307e-03  2.09156e-03  6.92213e-04
       H -2.12292e-03 -3.62883e-04  4.63065e-03
       O  1.32159e-04 -8.94461e-04  2.33189e-04
       H -4.61084e-03  2.63353e-03  1.80222e-03
       H -2.92123e-03 -1.68926e-04 -1.38206e-03
       O -1.01583e-05  1.09069e-03  3.95915e-04
       H  1.95705e-03 -8.14900e-04  2.92344e-04
       H  3.02381e-03 -3.06590e-03 -9.37270e-04
       O  1.23413e-03 -1.39850e-03  3.18062e-04
       H -7.50145e-03 -9.50767e-04  1.72044e-04
       H  7.09243e-03 -1.84720e-04 -3.63438e-03
       O -2.08229e-05  5.16876e-04 -3.89858e-04
       H  5.95821e-03 -5.40879e-04  1.15926e-03
       H -5.13233e-03 -3.74352e-03  4.32429e-04
       O -5.18534e-04  5.79348e-04  2.48946e-03
       H  1.31192e-03  6.63562e-04 -2.05660e-03
       H -1.54931e-03 -1.86174e-03 -6.57833e-05
       O  8.10238e-04  2.67524e-04 -1.66296e-03
       H -3.56128e-03  3.68290e-03  4.18276e-03
       H -6.06500e-04 -3.95529e-03 -1.30856e-03
       O  3.35299e-04  5.96991e-04 -2.05251e-03
       H  1.09435e-03 -1.87237e-03  7.09807e-04
       H -4.62041e-03  9.95096e-04  2.29681e-03
       O -8.09859e-04  9.69463e-04  1.32064e-03
       H  1.27982e-02 -5.52362e-03 -6.27024e-04
       H -8.03583e-05  1.69218e-03 -4.25144e-03
       O -1.09763e-03 -2.49701e-04  7.33875e-04
       H  3.53762e-03 -4.60308e-04 -2.01427e-03
       H -1.48409e-03  8.65832e-04  3.50459e-03
       O -5.11858e-04 -2.02836e-05 -4.20475e-04
       H  2.66354e-03  1.04109e-03 -3.68927e-04
       H -1.14069e-02 -3.36792e-03  1.92473e-03
       O -6.50944e-04  1.12511e-04 -6.20135e-05
       H -8.66875e-04 -2.05307e-03  1.15478e-03
       H -3.62284e-03 -8.59479e-04  3.12491e-03
       O -2.35542e-04  8.85695e-04 -1.05803e-03
       H  2.75660e-03  1.41550e-04  4.34106e-03
       H -5.43936e-03 -2.06405e-03 -2.13578e-03
       O  1.26941e-05 -8.70593e-04  1.03638e-03
       H -1.51672e-03 -1.16269e-03  2.54939e-03
       H  1.91127e-06  1.41378e-03 -5.29478e-05
       O -2.51495e-04  5.39221e-04  1.71264e-03
       H -1.82507e-03 -7.67002e-03  1.71807e-03
       H  1.98445e-03 -1.81214e-03 -2.66903e-03
       O  7.60345e-04 -5.14304e-04  1.87758e-04
       H -4.44987e-04 -3.61288e-03 -1.33069e-03
       H -3.24853e-04  5.06121e-03 -8.58971e-03
       O -7.21165e-04 -1.43641e-03 -2.65764e-04
       H -5.09954e-03 -3.70704e-03  1.44092e-03
       H -3.07267e-03  1.08742e-03  3.42676e-03
       O  5.19906e-04  1.63302e-04 -8.39455e-04
       H  4.28203e-03  4.83666e-03 -4.14868e-03
       H -6.64725e-03  3.34261e-04 -1.96477e-03
192
# CELL(abcABC):   16.99620    29.43815    27.67315    90.00000    90.00000    90.00000  Step:          20  Bead:      17 velocities{atomic_unit}  cell{atomic_unit}
       O -1.22801e-03 -8.01060e-04  1.35261e-04
       H -5.46068e-04  1.36940e-02 -1.70704e-03
       H  3.17801e-03 -5.21598e-05 -3.40156e-03
       O -1.89012e-03 -5.57088e-04  5.76757e-04
       H  7.00924e-03  1.87304e-03  5.29225e-03
       H  1.38552e-03 -6.79104e-03 -1.07960e-03
       O  1.79625e-04  4.86730e-04 -7.73954e-04
       H  2.64206e-03 -4.71044e-04  2.25559e-03
       H  9.32747e-04  1.39899e-03 -1.97020e-03
       O -2.32243e-05 -4.75111e-05 -6.09300e-04
       H  3.06452e-03 -8.61871e-04  6.94074e-03
       H -7.46143e-03  1.46047e-03 -7.09332e-03
       O -1.68606e-03  1.61945e-04  3.87422e-04
       H -1.77243e-03 -4.75461e-03 -1.94151e-03
       H -2.03216e-03  8.17310e-04 -4.60040e-03
       O -2.53123e-04  1.23593e-03 -3.26841e-04
       H -8.58442e-04  5.08654e-03 -1.30134e-03
       H  5.30013e-04 -8.37361e-04  2.59154e-03
       O -1.43500e-03  9.77040e-04 -5.69550e-04
       H  1.58622e-03 -3.80027e-03  7.23099e-03
       H -4.29566e-03 -6.24335e-04  1.11791e-02
       O  9.05701e-04  8.82843e-05  7.87732e-04
       H  3.86265e-03  6.87385e-03 -4.31251e-03
       H  2.07120e-03 -2.99306e-04  3.16789e-03
       O -5.40328e-06 -5.99647e-04 -4.47635e-04
       H -9.11984e-04  1.89200e-03 -4.93660e-03
       H -1.38580e-03  1.56678e-03 -1.21640e-03
       O  2.08982e-03 -7.74893e-04  3.07749e-04
       H -2.51996e-04 -3.37985e-03  2.44636e-03
       H  7.58009e-04 -7.59156e-03 -1.85808e-03
       O  1.17873e-04  2.29262e-03 -1.51247e-03
       H -9.98839e-04  8.02449e-04 -1.37128e-03
       H  4.00166e-03  2.69922e-03  4.64152e-04
       O  3.59112e-04 -1.06982e-03 -6.25599e-04
       H  6.18454e-03  1.08394e-03 -3.92468e-03
       H -3.07201e-03 -6.00881e-03  6.67328e-03
       O  4.36822e-04 -5.85904e-04 -1.18224e-03
       H -3.19767e-03  6.36821e-04 -2.15416e-03
       H -3.04688e-03  5.62118e-03 -1.55213e-03
       O  7.17377e-04 -7.81022e-04  3.35512e-05
       H -6.98495e-03  7.84259e-04  2.06927e-03
       H -2.13920e-04 -4.04789e-03  2.36926e-03
       O -5.81207e-04  1.69662e-03  6.35812e-04
       H  1.12945e-03  3.78236e-03 -3.83184e-03
       H  1.56768e-03  3.92109e-03 -3.56715e-03
       O -1.16121e-03  2.45494e-04  2.89174e-04
       H -8.12344e-03 -2.83096e-03 -4.32830e-03
       H  4.36784e-03 -1.97637e-03  3.42655e-03
       O  7.76721e-04 -1.68224e-03 -1.94444e-03
       H  4.68965e-04 -5.81962e-03  6.08515e-03
       H  2.51248e-03  4.14143e-03  6.12267e-03
       O  1.19730e-03 -6.77825e-04 -5.72923e-04
       H  4.92575e-03  6.04171e-03  8.83300e-04
       H -9.30631e-03 -6.11219e-03  9.82632e-03
       O -3.75391e-04  4.46109e-04 -2.26382e-04
       H -5.36723e-03 -1.50692e-03 -1.09168e-03
       H  9.07951e-03  5.14183e-03 -7.65924e-04
       O  4.96934e-04 -1.25984e-03  2.14486e-03
       H -8.93279e-04 -6.29214e-04 -2.91652e-03
       H  6.21022e-04  1.16285e-04  2.39028e-04
       O -6.67516e-05  9.54031e-04 -1.88171e-04
       H  3.91910e-03  1.72793e-03  3.64040e-03
       H -1.18316e-03  8.18075e-04  2.97553e-03
       O  1.23421e-04 -2.90601e-04  6.02866e-04
       H -3.02854e-03  1.02483e-03 -1.94644e-03
       H  4.34835e-03 -3.42801e-04  4.40251e-03
       O -1.86370e-04 -5.68606e-04 -1.19872e-03
       H -9.34793e-04 -2.02622e-03  2.95711e-04
       H -5.37454e-03  7.22661e-03  4.96465e-03
       O  1.05260e-04 -1.34755e-03 -9.20989e-04
       H -6.03738e-03 -7.83765e-04 -1.77658e-03
       H -4.11587e-04  8.67484e-04 -2.84160e-03
       O -6.00376e-04 -7.93219e-04 -3.29692e-04
       H  7.51545e-03 -1.71561e-03  5.20117e-03
       H -1.77363e-03  2.05734e-04  4.18874e-03
       O  8.17800e-04  6.32983e-04  2.63607e-05
       H  7.76552e-04 -2.76571e-03 -2.31034e-03
       H  5.28377e-03 -2.06442e-03 -2.04410e-05
       O -2.26865e-04  8.05867e-04 -3.42590e-04
       H -4.95382e-03 -1.33163e-03  1.08928e-03
       H  1.19427e-03  6.32568e-03  2.72819e-04
       O  2.98847e-04 -1.41219e-03 -6.18946e-04
       H -8.32508e-03 -3.62829e-04  7.25618e-03
       H  9.44147e-04 -2.49415e-03 -1.98024e-03
       O  3.78965e-04 -5.18009e-04  5.22076e-04
       H -2.30903e-03  3.89749e-03  8.01474e-04
       H  1.47693e-03  1.30380e-03 -7.85991e-04
       O -1.99392e-03  1.40625e-04  1.23484e-04
       H -1.19642e-03 -5.71351e-03  1.65562e-03
       H -1.34940e-03  4.79839e-03 -2.07061e-03
       O  9.41563e-04 -9.92845e-04 -3.53832e-04
       H -3.41679e-03 -4.04112e-04  9.20414e-04
       H  1.78585e-03  1.63023e-03 -1.54922e-03
       O  3.08152e-04  1.15983e-03 -9.64099e-04
       H -1.29102e-03  5.85854e-04  1.99936e-03
       H -6.70914e-04 -3.03378e-03 -1.24357e-03
       O -8.54129e-04  7.90819e-04  7.53228e-04
       H -2.63628e-04 -1.91133e-03  4.55159e-03
       H -1.00915e-02 -7.20297e-03  5.37770e-03
       O -7.63271e-04 -8.60529e-04 -3.97740e-04
       H -2.58834e-03  3.38336e-04  4.40885e-03
       H -2.52479e-04  2.70647e-04  6.79039e-04
       O  1.44977e-03 -8.70091e-04  6.34189e-04
       H -6.33819e-03  1.81361e-03  1.59518e-03
       H  4.71870e-03  3.60245e-03  6.81782e-03
       O  4.45883e-04 -4.53393e-04  5.33063e-04
       H  3.83129e-03  5.57771e-04  1.36344e-03
       H -1.04910e-04  2.12663e-03 -3.35552e-03
       O  9.75707e-04  4.02569e-04  8.74980e-05
       H  4.09964e-04 -1.88019e-04  2.77667e-03
       H  2.22629e-03 -3.99259e-03  2.12978e-03
       O -1.01493e-04  1.44988e-04  4.13939e-05
       H -1.28925e-03 -1.98747e-03 -1.10427e-02
       H  6.11874e-03 -9.42744e-04 -1.02704e-03
       O -1.37697e-03  7.21535e-05 -6.47955e-04
       H  1.54257e-03  2.10562e-03 -1.80269e-03
       H  1.37082e-03 -4.04583e-03 -1.42155e-03
       O  4.91708e-04  7.54546e-04 -1.33679e-03
       H -6.15054e-03 -5.22159e-03  1.44545e-03
       H -3.10922e-03  6.54481e-04  3.41028e-03
       O -5.38874e-05  4.53628e-04  4.57382e-04
       H  3.54109e-03 -3.49001e-03 -8.64820e-03
       H -2.70554e-03  3.68255e-03 -5.85434e-04
       O  3.29867e-04  1.36463e-03 -1.02180e-04
       H -2.12346e-03 -3.18952e-03 -2.41202e-03
       H -2.31893e-03  9.55137e-04  3.76435e-03
       O -5.75069e-04 -7.78356e-04  1.40647e-03
       H -5.26378e-03 -4.22078e-03 -1.67382e-03
       H  5.34386e-03 -5.78977e-03 -1.52417e-03
       O -1.99452e-03 -9.34772e-04  1.03280e-03
       H  8.12810e-04  4.44356e-03 -2.90785e-03
       H  1.42822e-03 -3.26677e-03  1.59891e-03
       O -7.06253e-04 -3.95263e-04  3.79868e-04
       H  1.44660e-03  3.46727e-03 -4.93995e-03
       H -6.39031e-04  5.37470e-03  1.18410e-03
       O  1.36373e-04  7.79740e-04  1.63970e-03
       H -8.06884e-03 -3.83527e-03  5.15132e-03
       H -1.93782e-03  1.42509e-04  1.31515e-04
       O -1.39169e-03 -1.50613e-03 -6.14879e-04
       H -6.40726e-03  2.31563e-03  7.11642e-03
       H -3.88901e-05  4.98443e-04 -1.56481e-03
       O  1.52054e-03 -1.53140e-03  1.38970e-05
       H -5.78803e-03 -5.18699e-03  1.45094e-03
       H  4.88000e-03  9.20779e-05 -8.84667e-04
       O -2.58807e-04 -1.98888e-03 -9.83684e-04
       H  1.07722e-03 -2.09787e-03 -1.08784e-02
       H  5.26086e-03  7.91720e-03 -6.52234e-05
       O -1.16160e-03  4.89204e-04 -1.34496e-03
       H  1.42495e-03 -6.91399e-03  3.63256e-03
       H  2.34530e-03  1.95847e-03  3.97241e-03
       O -1.80427e-04 -5.04139e-04 -3.91565e-04
       H  3.17150e-03 -2.04806e-04 -2.16194e-03
       H  3.72198e-03 -7.17702e-04  2.01434e-03
       O -1.16726e-03 -2.71598e-04  1.48954e-03
       H -4.45523e-03  5.75836e-03 -1.07249e-03
       H  2.15147e-03 -1.99690e-03  1.44502e-03
       O  1.05351e-03  1.23302e-03  2.03690e-03
       H -6.49425e-03  3.63688e-03  1.98518e-03
       H -4.76182e-03  1.81689e-03  2.39491e-03
       O -3.16571e-04  3.23473e-04  7.96002e-04
       H  3.58038e-05  1.59122e-03 -5.69710e-03
       H  6.37278e-03  4.28554e-03 -5.58403e-03
       O  5.08698e-04 -5.70785e-04  1.12757e-04
       H -8.23476e-04  3.20274e-04 -3.72675e-03
       H  3.35857e-03 -1.19197e-03 -2.85702e-03
       O  2.39894e-04  3.33693e-05 -4.31452e-04
       H -7.27954e-04 -8.52452e-04  1.61194e-03
       H  3.44110e-03  1.09351e-04 -2.62552e-03
       O -9.70304e-04 -2.70632e-04  1.15348e-03
       H  2.93862e-03 -1.51854e-03 -1.14411e-03
       H  2.03213e-03 -5.51718e-03  4.65657e-03
       O -8.08607e-04  1.89617e-03 -1.68336e-03
       H -6.78043e-03  6.41821e-05  4.40266e-03
       H  7.37410e-04 -2.14124e-03  4.28266e-03
       O -8.20913e-05  1.97500e-05 -5.47917e-04
       H  1.10025e-03  2.39706e-03  2.13306e-03
       H  2.65766e-03  1.24180e-03 -1.45637e-03
       O  1.04184e-04  7.34413e-04  1.91705e-04
       H -5.40704e-03  2.81510e-03  7.63116e-04
       H  2.25062e-03 -5.31681e-03 -3.17732e-03
       O  5.65237e-04 -3.80521e-04  1.91369e-04
       H  6.04128e-04 -7.48606e-03 -9.57878e-04
       H  2.54105e-03  1.18149e-04 -1.15734e-03
       O -1.06888e-03 -1.40863e-03 -2.05604e-04
       H -3.01278e-03  1.17302e-03 -7.16210e-04
       H -5.21430e-03  3.52022e-04  7.18830e-03
       O -4.66483e-04 -7.55792e-05 -3.66618e-04
       H  1.18140e-03  2.62465e-03  3.25224e-03
       H  3.86920e-03  3.79900e-03  5.39086e-03
       O -4.74622e-04 -8.17996e-04  1.25447e-04
       H -3.76137e-03 -1.87359e-03  6.76179e-03
       H  3.94479e-05  1.89515e-03  1.69482e-03
192
# CELL(abcABC):   16.99620    29.43815    27.67315    90.00000    90.00000    90.00000  Step:          30  Bead:      17 velocities{atomic_unit}  cell{atomic_unit}
       O -4.68827e-04 -6.56691e-04  1.97950e-04
       H -3.90506e-03  1.31539e-03  8.69961e-03
       H  1.82312e-03  9.89280e-04 -1.94086e-03
       O  1.37894e-03  1.00409e-04 -4.69384e-04
       H  8.28504e-04  6.50280e-03  4.21844e-03
       H -4.69722e-03  4.73291e-03  3.90327e-03
       O  1.47316e-03 -6.47153e-04  2.78787e-04
       H -2.74729e-03  1.27189e-03 -2.40797e-03
       H  2.11660e-03  7.30271e-04  6.31067e-03
       O  7.61750e-04 -1.00900e-03 -4.41135e-04
       H -5.76935e-03 -4.96564e-04  2.25489e-03
       H  3.14485e-03 -1.11775e-03  2.66577e-03
       O  1.78563e-04 -9.93022e-04  4.64086e-04
       H  1.77432e-03 -1.18580e-03  3.05256e-03
       H  3.61151e-03  1.03610e-03 -1.48930e-04
       O  3.48473e-04  1.00855e-03 -1.54097e-03
       H  7.44779e-03 -6.25561e-03 -3.73392e-03
       H  1.43127e-03  1.64796e-03 -1.78008e-03
       O  5.01565e-04  2.87897e-04  1.62470e-04
       H  3.80623e-03  5.86795e-04  7.06077e-04
       H -8.43752e-04  6.03934e-03  4.67755e-03
       O -5.66591e-05 -2.74341e-04 -8.40219e-04
       H  2.45912e-03 -1.20842e-03 -1.74292e-03
       H  3.47219e-03 -7.83009e-04  6.85050e-03
       O -2.19312e-03  4.30173e-05  4.75784e-04
       H -1.17591e-03 -3.61010e-03 -6.29841e-03
       H  1.59208e-03 -7.59651e-04  3.87152e-03
       O  8.80267e-04 -5.08633e-05  8.02741e-04
       H -4.63134e-03  3.88728e-03 -5.05789e-03
       H -2.48871e-03  9.48272e-03  2.77035e-03
       O -1.10424e-03 -6.05993e-04  7.19399e-04
       H -2.37287e-03  4.61378e-03 -3.26391e-03
       H -3.14310e-03 -1.05529e-03 -3.05647e-03
       O -3.67648e-04  2.50629e-04 -8.62119e-04
       H  2.67436e-03 -3.23961e-03  2.36374e-03