192
# CELL(abcABC):   16.99620    29.43815    27.67315    90.00000    90.00000    90.00000  Step:           0  Bead:      22 velocities{atomic_unit}  cell{atomic_unit}
       O -4.98491e-04  8.08365e-04 -6.18690e-04
       H -6.50705e-03  1.02014e-03  1.17108e-03
       H -3.29573e-03  3.19040e-03  1.33209e-03
       O  1.44156e-05 -5.66143e-04 -1.42452e-03
       H -4.17158e-03 -6.94160e-03  3.89701e-03
       H  6.26412e-03  1.75869e-03  2.66102e-03
       O  1.31108e-03  8.51437e-04 -7.53318e-04
       H  8.36233e-04 -4.16842e-03 -1.99939e-03
       H  3.97907e-03  1.64723e-03  7.17492e-03
       O  7.96387e-04  1.96683e-04  3.93042e-04
       H -3.39104e-03  6.00475e-04  5.92470e-03
       H  7.90480e-03  2.38071e-03  5.80465e-03
       O  8.27351e-04 -4.06711e-04 -1.80512e-03
       H  6.76892e-04  4.98333e-03 -3.62710e-03
       H -8.52068e-04  2.34530e-03  1.14044e-02
       O  9.73878e-05  3.44293e-04 -1.73703e-03
       H  2.86905e-03 -1.14388e-03  5.15802e-03
       H -5.06006e-04 -4.91198e-03 -2.33920e-03
       O  2.30018e-06  8.31736e-04  6.19906e-04
       H  2.71956e-03  2.38141e-04 -2.12738e-03
       H -5.10991e-03 -5.93670e-03  4.60312e-03
       O -1.22505e-04  2.45522e-04  6.63735e-05
       H -1.06439e-03  3.61511e-03 -3.43017e-03
       H -2.72949e-03  1.85023e-03  6.79441e-04
       O -3.63086e-04 -1.29055e-04 -6.05267e-04
       H -1.21828e-03  9.70000e-04 -7.28780e-03
       H  7.81593e-04  9.70543e-04  3.32830e-05
       O  3.75962e-04  4.35104e-04 -8.27995e-04
       H -2.68627e-03  2.97426e-03  1.72518e-03
       H -6.29968e-03 -8.59633e-03  5.59523e-03
       O -4.53690e-04  8.42075e-05 -1.42562e-03
       H  7.44674e-03 -2.37367e-04 -1.51331e-03
       H -2.43721e-04 -1.38400e-03 -1.55226e-03
       O -1.72812e-04  1.50602e-03  9.86246e-04
       H -3.03899e-03 -2.76812e-03 -7.12594e-03
       H  3.69036e-03 -1.92035e-03 -2.13291e-03
       O -1.60979e-03 -3.89388e-04  4.37143e-05
       H -8.56604e-03 -6.40708e-03 -5.03128e-03
       H -5.59833e-03 -4.79905e-03  2.66126e-03
       O  1.50525e-04  6.41885e-04 -1.31027e-03
       H -3.80704e-03 -2.60912e-03 -2.25129e-04
       H -3.69841e-03 -2.18173e-03 -4.87785e-03
       O -6.56251e-06 -2.39617e-03 -9.55821e-04
       H -9.77052e-04 -2.36186e-03  3.95893e-04
       H  5.58306e-03 -6.69631e-03 -4.90176e-03
       O  1.23990e-03 -1.11016e-03 -9.99300e-04
       H -7.37848e-04 -4.87989e-03  7.52285e-03
       H -9.44855e-04  1.54432e-03 -8.67569e-04
       O  5.42414e-04  2.04791e-04 -1.41294e-03
       H -3.32687e-03 -1.72365e-03  5.19484e-03
       H -1.80467e-03 -1.28312e-03  3.79567e-03
       O -1.83001e-04 -6.95561e-04  7.19472e-04
       H -2.45883e-03  1.26621e-03  6.54394e-04
       H -2.23638e-03 -4.89541e-03  7.12333e-03
       O  1.23146e-03  5.96893e-04 -1.28830e-03
       H  8.81817e-04 -1.02469e-03 -3.69362e-03
       H -1.92288e-03  5.41254e-03 -7.97272e-04
       O  3.67326e-04 -1.03009e-03 -6.73582e-04
       H -1.91506e-03 -3.36168e-03  7.54969e-04
       H  1.68372e-03 -5.73148e-03 -2.43501e-03
       O  5.90009e-05  5.09861e-04  5.94389e-05
       H  3.79611e-03 -9.25884e-03  3.17852e-03
       H -5.53200e-03 -1.73691e-03 -1.76720e-03
       O -2.73707e-04 -1.10662e-03  2.27097e-04
       H -1.44852e-03  4.04246e-03  2.49405e-03
       H  5.06703e-03 -3.32691e-03  3.02018e-03
       O -3.69551e-04 -4.95092e-04 -1.48547e-04
       H -3.85735e-03 -1.79852e-03 -1.97075e-03
       H -9.93109e-04 -1.74872e-03  1.25112e-03
       O  1.65188e-03 -9.41107e-04  4.72094e-04
       H -5.56455e-03 -1.38864e-03  2.45198e-03
       H  7.26470e-04  7.72993e-03  1.35096e-03
       O -1.01010e-03  3.45892e-04  5.40590e-04
       H -7.23700e-03 -4.79759e-03  2.90753e-03
       H  2.96134e-04 -5.23428e-04 -6.30456e-03
       O -1.41424e-04 -6.54351e-04 -1.28113e-03
       H  5.18788e-04 -3.25789e-03 -5.95358e-04
       H -1.01950e-03 -2.21785e-03  1.77728e-03
       O  1.81294e-03  1.18349e-03 -1.39710e-03
       H  2.28757e-03 -8.88567e-03 -3.81144e-04
       H  5.67629e-04  2.74345e-03  9.09735e-04
       O -1.63153e-03  1.11122e-03 -2.77494e-04
       H -1.37466e-03 -4.58416e-03  2.25410e-03
       H  7.56758e-04 -3.52071e-03 -1.77092e-03
       O  4.64032e-04 -1.11059e-04  7.50199e-05
       H -1.15629e-03  4.27246e-03 -3.28341e-05
       H  7.69142e-04 -1.25967e-03  3.26402e-03
       O -1.22483e-04  6.13758e-04 -1.42728e-04
       H -1.11994e-03  1.15756e-02 -5.12579e-03
       H  2.77842e-03  1.96585e-04 -4.15594e-04
       O  4.53002e-04 -1.32309e-03  1.17952e-03
       H -3.18576e-03  2.28588e-04  1.64967e-03
       H -4.51157e-05 -2.29130e-03  4.85317e-03
       O -9.54407e-04 -9.01102e-04  1.27349e-03
       H -1.56569e-03  9.73191e-04  3.43243e-03
       H  2.50036e-03 -3.55885e-04 -1.22915e-03
       O  5.80259e-04  7.79045e-05  6.98932e-05
       H  4.84932e-04 -1.28983e-03  5.06706e-03
       H  1.23604e-03 -1.96609e-04  3.36725e-03
       O  7.37485e-04 -8.69253e-04  1.32843e-05
       H  6.02040e-03 -2.74344e-03 -7.18786e-03
       H  4.11470e-03 -1.80210e-03 -1.38394e-03
       O  8.20063e-04  1.63939e-03 -2.25276e-04
       H -2.87004e-03 -7.55194e-04 -2.21039e-03
       H -7.01380e-03  3.44915e-03 -1.58848e-03
       O -6.60724e-04  4.52800e-04  5.82197e-04
       H  6.86951e-04 -3.20644e-03  5.46913e-04
       H -2.91604e-03  1.33905e-03  2.48518e-03
       O -1.79578e-04  6.75486e-04  7.20333e-04
       H -1.42298e-03  4.06702e-04 -3.78475e-03
       H -4.18153e-03 -6.69332e-03  3.93941e-03
       O  1.69325e-03 -1.21918e-03 -2.21820e-03
       H  1.88579e-03 -2.62714e-03 -1.64743e-03
       H  4.80596e-03  3.71365e-03 -2.11630e-03
       O  2.89145e-04  2.08446e-04  2.67630e-04
       H  5.75696e-03  5.06922e-04 -7.35630e-03
       H  6.66849e-03  1.18814e-04 -9.52602e-04
       O -1.58484e-03 -4.59420e-04  3.69034e-04
       H -1.48316e-03 -2.31533e-03  2.12789e-04
       H  1.40865e-03  3.50805e-03 -4.50531e-03
       O  3.84589e-04  7.26894e-04 -6.09889e-04
       H  2.79651e-04  3.39739e-03 -1.08253e-03
       H -4.13817e-05 -2.57502e-03  2.17379e-03
       O  1.43320e-03 -1.15819e-03 -1.68968e-03
       H  5.48908e-03  1.11146e-04  9.39221e-04
       H -1.16934e-03  9.34643e-04  3.72995e-03
       O  2.17537e-03 -1.03578e-03  3.75897e-04
       H  4.67987e-03 -3.85362e-03  5.95266e-03
       H  3.97658e-03 -2.68742e-03 -1.42412e-03
       O -3.46760e-04  2.13782e-03 -5.80737e-04
       H -8.24447e-04 -3.07936e-03 -3.88806e-03
       H -8.38836e-04 -1.60299e-03 -2.26181e-03
       O  2.46855e-04  5.44470e-04 -4.35139e-05
       H  2.91263e-03 -2.02686e-03  1.13432e-03
       H  2.63875e-03 -2.76526e-03  3.93374e-03
       O -4.98921e-04  2.99380e-04  4.07846e-04
       H -2.99451e-03 -2.54281e-03 -5.65220e-03
       H -7.87107e-04  4.11748e-04 -1.80622e-04
       O  2.17572e-03 -1.83935e-04 -1.78812e-04
       H  5.00602e-03  2.49428e-03  3.11069e-04
       H  6.39826e-05 -1.39967e-03 -2.94045e-03
       O -3.23604e-03 -7.96321e-04 -5.64232e-05
       H -2.16106e-03  2.09547e-03  5.23356e-04
       H -1.44669e-03 -2.69146e-03  2.22120e-03
       O  1.58562e-03  1.89368e-03 -3.26125e-04
       H -6.02234e-04  6.90985e-04  5.67678e-03
       H -4.84258e-03  2.80368e-03  4.39193e-03
       O  1.59331e-03 -7.41545e-04 -4.41766e-04
       H  8.24713e-04 -3.35991e-03  4.61731e-03
       H -3.25654e-03  2.28071e-03 -1.33822e-03
       O  1.65965e-04 -1.77266e-04  8.88246e-04
       H  3.73421e-03  3.40271e-04  2.55867e-03
       H -4.99806e-03  2.06105e-03  2.51575e-04
       O -1.73387e-03 -3.90289e-04  1.66710e-04
       H  3.99367e-03 -1.00592e-03 -1.44428e-03
       H  6.24799e-03  1.70713e-03  9.91870e-04
       O -2.70418e-04 -6.44699e-04  9.97991e-04
       H -2.61013e-04  2.50898e-03  1.46734e-03
       H  2.29634e-03  2.82107e-03  3.50425e-03
       O  5.32742e-04 -3.58432e-04  4.06438e-04
       H  1.11326e-03 -5.59860e-03 -8.78916e-04
       H  3.11853e-03  1.86178e-03  7.14883e-04
       O -6.07604e-04 -1.07536e-03  1.57263e-04
       H -4.15031e-03 -4.92906e-03  8.44004e-05
       H -3.13389e-03 -3.09816e-03  1.17197e-03
       O -2.68885e-04  1.04318e-04 -1.06945e-04
       H -1.15506e-03 -4.73420e-03 -2.70340e-03
       H  5.79423e-03  1.71557e-03 -7.10741e-03
       O  1.90301e-04  3.96372e-04  1.92493e-04
       H  2.53879e-03  1.30582e-03  1.57724e-03
       H -2.28530e-03 -2.23867e-04  4.03403e-03
       O -2.02474e-03 -3.21146e-04 -1.12237e-03
       H -9.80269e-03 -5.07681e-03  3.00448e-03
       H  4.93658e-03  3.22147e-03 -1.21700e-03
       O  6.10416e-04 -6.79438e-05 -5.02638e-04
       H  2.60673e-03 -1.31122e-03 -3.99474e-03
       H  4.72368e-03  2.22950e-03 -6.16412e-03
       O  3.36252e-04 -7.22845e-04 -8.59542e-04
       H  2.00305e-03 -3.86376e-04  4.43342e-03
       H -3.83307e-03  2.95598e-03  3.39713e-03
       O  1.75110e-04 -1.51997e-03  1.22443e-03
       H -4.93737e-04  9.16200e-05 -2.19190e-03
       H  7.30351e-03 -1.44699e-03 -6.36907e-04
       O  4.29867e-04 -5.62891e-04  6.89722e-04
       H -8.10430e-04  6.88409e-03 -3.52662e-03
       H  5.58955e-04 -2.20785e-04  3.14822e-03
       O  9.96451e-04  2.78227e-04 -1.11729e-03
       H -4.95045e-03 -8.68353e-04 -3.75870e-03
       H -8.56300e-04 -2.07173e-03 -1.24257e-03
       O  1.91272e-04  1.45226e-03 -3.03215e-04
       H  3.74139e-03 -2.83016e-03  3.70886e-03
       H  1.55165e-03 -1.35631e-03 -3.83481e-03
192
# CELL(abcABC):   16.99620    29.43815    27.67315    90.00000    90.00000    90.00000  Step:          10  Bead:      22 velocities{atomic_unit}  cell{atomic_unit}
       O -6.62626e-04 -5.92625e-04  6.28236e-04
       H  5.46828e-03 -2.26764e-05  1.08666e-02
       H  2.25707e-03  3.35419e-03 -7.48752e-04
       O  9.09760e-04 -3.21817e-04  3.43836e-04
       H  2.55696e-03 -4.61915e-04  1.08225e-04
       H  2.70008e-03 -1.42696e-03 -2.95735e-03
       O  3.96718e-04  7.96128e-04 -1.84985e-05
       H  5.21826e-03  6.75799e-03 -6.67537e-03
       H  5.70213e-03 -1.95667e-03 -1.82164e-03
       O  9.54380e-04  3.89761e-05  5.07880e-04
       H -2.61324e-03  5.84749e-03  6.34898e-04
       H -2.81892e-03  2.16153e-03 -1.62658e-03
       O -1.23587e-03 -1.49997e-04 -1.32946e-03
       H  9.86038e-04  8.10255e-04 -2.95639e-03
       H  6.34583e-04 -3.20676e-04 -9.26743e-05
       O  7.33920e-04 -4.99898e-04 -2.09673e-04
       H  3.03307e-03  3.47782e-03 -2.74914e-04
       H  2.25757e-05  2.60555e-03 -6.27753e-03
       O -5.88707e-04  3.61728e-04 -3.97848e-04
       H -1.93633e-03  1.16709e-03 -1.04318e-03
       H  4.01798e-03  4.42448e-03  1.69997e-03
       O -1.35050e-03  8.82237e-04  3.24924e-05
       H  6.50716e-03 -7.81519e-04  5.85979e-04
       H -8.17483e-04 -5.38268e-05 -1.71818e-03
       O -3.88346e-04 -1.17923e-03 -8.16110e-04
       H  3.26938e-03 -7.27331e-03  1.00043e-03
       H -9.17315e-03  1.80081e-03  6.67128e-04
       O  1.52082e-03  1.98830e-03  1.73577e-04
       H  3.09082e-03 -3.30584e-03  6.89961e-03
       H -1.21305e-03  2.50971e-03 -5.39004e-03
       O  4.04067e-04  1.81345e-03 -9.59856e-05
       H -1.16147e-03 -3.80323e-06  1.55911e-03
       H  5.52678e-03 -6.78535e-03 -1.09192e-03
       O  5.84956e-04  5.35835e-04  7.20631e-04
       H  3.86995e-03 -1.34401e-03 -6.77776e-03
       H -3.49010e-03  3.72687e-03 -5.42253e-03
       O -1.16890e-03  3.44255e-04 -1.24689e-03
       H -3.58958e-03 -5.80602e-04 -1.84412e-03
       H -1.44926e-03  7.44114e-03 -4.09101e-04
       O -5.45120e-04  8.96465e-04  1.91480e-04
       H -4.60748e-03 -3.87602e-03 -2.26473e-03
       H -2.17279e-03 -2.68679e-03  5.92729e-03
       O -1.62538e-04  7.86485e-05  2.55223e-05
       H  6.15342e-04  5.42494e-03 -4.44869e-04
       H  8.05791e-04 -3.30044e-03  2.18379e-03
       O -3.63603e-04 -2.75361e-04  4.88430e-04
       H -9.65083e-04 -3.65105e-03 -3.50934e-04
       H  2.09267e-03  2.68430e-03  2.70569e-03
       O -1.40023e-03 -1.04297e-03 -7.66862e-04
       H -4.38969e-03 -5.08120e-03  6.12504e-03
       H  1.63073e-03 -5.33625e-03  2.81190e-03
       O -8.53188e-04 -3.55119e-04  3.01541e-04
       H -7.69591e-04  1.60378e-03  2.87518e-03
       H  4.88551e-03  5.63288e-03 -2.22789e-03
       O  1.10997e-03  1.74122e-04 -8.54744e-04
       H  1.26171e-03 -1.57099e-03 -1.71616e-03
       H  8.64949e-04 -1.22082e-03  4.50915e-03
       O  1.14531e-03 -2.65557e-03 -2.03974e-04
       H  2.29941e-03  1.79116e-03 -4.72662e-04
       H -1.73933e-03  1.89267e-03  6.90333e-05
       O  5.83316e-04 -2.36441e-04 -3.27059e-04
       H -3.36944e-04 -2.40887e-03  1.29739e-03
       H -9.75407e-04 -4.30121e-03 -4.87100e-03
       O -8.61661e-04  2.48535e-04 -1.24085e-03
       H -1.99266e-03  7.50689e-03  5.12083e-03
       H  1.62953e-03  4.36450e-04 -1.21321e-03
       O  3.84341e-04  1.28884e-03  1.35665e-03
       H  3.77534e-03 -1.13120e-03 -5.25135e-03
       H -2.05536e-03  1.05174e-03  5.42080e-03
       O  5.29749e-04  9.64054e-04 -1.17250e-03
       H  7.45113e-03  1.46406e-03 -1.60319e-03
       H  1.56233e-03 -1.05876e-03  2.92847e-03
       O  4.29323e-04 -1.13903e-03  5.94623e-04
       H  6.25411e-03  9.58884e-04  2.79946e-03
       H  3.41951e-03 -5.89839e-03 -1.21226e-03
       O  1.72780e-04  1.13387e-03 -1.13353e-03
       H -5.50726e-04 -5.36328e-04  2.40143e-03
       H  1.60890e-03 -2.11308e-03 -3.11029e-04
       O -2.54578e-04 -1.93970e-04  2.22003e-04
       H  3.46848e-03  1.32608e-03 -5.92015e-04
       H -1.72446e-03  2.74969e-04 -3.18060e-03
       O -5.05318e-04 -5.09572e-04 -5.96596e-04
       H -2.06830e-03  3.03456e-03 -2.17533e-04
       H  3.27295e-04  1.54822e-03 -8.35301e-03
       O  1.21559e-03 -1.13942e-03  4.51308e-04
       H -3.28260e-03 -6.99347e-04  2.16851e-03
       H  1.40366e-04  1.23376e-03 -3.27879e-03
       O  5.89876e-05  1.23816e-03 -7.95918e-05
       H  1.89005e-03 -1.60083e-05  1.05463e-03
       H  9.53634e-04  1.59275e-03  3.45912e-03
       O -8.85520e-05 -4.99594e-04  1.13941e-03
       H -2.16311e-04  1.80159e-03  4.22423e-03
       H -5.24679e-03 -3.26706e-03 -4.26929e-03
       O  5.71787e-04  5.71919e-04 -4.32686e-04
       H -3.28191e-03 -3.74905e-03  1.47440e-03
       H  1.34849e-03  2.64341e-03 -6.10956e-03
       O -5.69249e-04  1.38579e-03 -2.17815e-03
       H -1.64156e-03  5.21734e-04  1.59079e-03
       H -1.96017e-03  4.44522e-03  2.38196e-03
       O -4.75086e-04  9.65846e-05  1.16454e-03
       H  8.88969e-04  6.16315e-03  4.09795e-04
       H -6.87904e-04  2.16591e-04 -7.99756e-04
       O  4.64091e-04 -1.37827e-03 -2.59483e-04
       H -2.02802e-03  2.23870e-03  2.92834e-03
       H  6.25282e-03 -1.13559e-03 -4.20726e-03
       O -2.41822e-04 -1.99349e-04  8.70651e-05
       H  2.43854e-03  1.95793e-03 -1.00211e-03
       H  9.62180e-04  2.76385e-03 -2.51620e-03
       O  1.11091e-05  6.76771e-04  1.01966e-03
       H -1.64734e-03  4.66595e-03  3.19169e-03
       H  1.63253e-04  1.88684e-03  5.90431e-04
       O  3.97807e-04 -2.49858e-04 -5.89551e-04
       H -5.48499e-04 -3.17517e-03  2.74868e-03
       H -6.61337e-03 -3.97844e-04 -5.90528e-03
       O  5.32125e-04  8.45356e-04 -1.37983e-03
       H  2.55619e-03  6.00673e-03  2.89864e-03
       H -1.45920e-03  3.89528e-03  1.55966e-03
       O  9.12854e-04  2.53026e-04 -5.51053e-06
       H -1.41562e-04  9.41929e-04  2.01465e-03
       H  3.44564e-04 -2.82911e-04 -1.81738e-03
       O  3.52107e-04 -1.25049e-03 -8.40013e-04
       H  6.99719e-03  8.53634e-04 -1.14404e-03
       H -4.16172e-03 -6.62469e-03  7.70754e-03
       O  1.06344e-03 -6.89552e-04 -7.83247e-05
       H -9.70282e-04 -3.13968e-03 -6.49842e-03
       H  1.06342e-03 -4.70000e-03 -9.60796e-05
       O -1.95935e-04 -2.54041e-04 -3.87475e-04
       H -4.12347e-03 -2.55032e-03 -7.14922e-03
       H -8.72315e-03 -2.94061e-03 -2.28934e-03
       O  1.92716e-04 -1.64532e-03  8.87005e-04
       H  4.17520e-03 -4.55245e-03 -2.03858e-04
       H  1.94522e-03 -4.89109e-03  1.86141e-03
       O -1.70349e-03  7.53252e-04 -3.57471e-04
       H -9.64065e-04  3.22683e-03 -6.84314e-04
       H -2.85654e-03 -9.17778e-04  3.52785e-03
       O -1.17767e-03 -1.94508e-04 -7.08164e-04
       H -2.12045e-03  3.22805e-03 -2.27074e-03
       H -8.18394e-04 -4.93193e-04  3.59597e-03
       O -2.42056e-04 -2.28342e-03 -8.66225e-04
       H  4.24537e-03  3.26238e-03  3.40214e-03
       H -5.47916e-04 -8.75103e-03  3.38664e-03
       O -1.54595e-03  1.15664e-03 -1.34944e-03
       H  6.28382e-03 -2.65653e-03 -8.44091e-03
       H  2.30196e-03  3.31375e-03 -1.32109e-03
       O -4.52157e-04 -8.41394e-04  1.11073e-03
       H -7.61522e-04  1.23658e-03 -3.56734e-03
       H  1.02464e-04  3.53571e-03 -3.56830e-03
       O -1.05589e-03  1.43243e-03  1.19849e-04
       H -3.15361e-03 -7.18565e-03  2.96192e-03
       H  1.77600e-03 -4.23870e-03  5.09163e-03
       O  2.30005e-04  3.99699e-04  8.97808e-04
       H -2.65380e-03  8.61942e-03 -4.63939e-03
       H  2.90987e-03  2.21263e-03  1.67008e-03
       O -7.96611e-04  9.89469e-04  2.09971e-04
       H  3.84622e-03  7.96344e-04 -3.61157e-04
       H  7.37919e-03  6.95068e-04  5.26187e-06
       O  2.86146e-04 -1.03255e-03  8.56683e-04
       H -2.60966e-03 -1.93221e-03 -6.10969e-03
       H  3.01869e-04 -7.52427e-04 -2.81436e-03
       O  4.19834e-05  1.62668e-04 -1.80829e-03
       H  4.51463e-03  4.64102e-04  4.53815e-03
       H  5.02079e-03 -7.68999e-04  1.89013e-03
       O -9.17108e-04 -1.75988e-03  1.96409e-04
       H -3.89171e-03  7.50735e-03 -5.86716e-04
       H  1.13524e-03  1.01281e-03  8.79946e-04
       O -1.26501e-03  1.46028e-03  8.72396e-05
       H  1.08183e-03  4.89770e-04  2.55950e-03
       H -6.00237e-03 -9.37528e-04  4.48167e-03
       O -8.52747e-05  3.97267e-04  1.96909e-04
       H -2.73190e-03  3.00991e-03  2.55056e-03
       H -1.95902e-03 -5.01551e-03  2.26212e-04
       O  5.88650e-04  2.11590e-04  4.66604e-04
       H -5.22572e-04 -3.71245e-03  2.21416e-03
       H  3.97440e-03  3.92119e-03 -4.55226e-03
       O -2.70550e-04  2.79095e-04 -1.59195e-03
       H  6.06560e-03 -5.76576e-03 -3.90197e-03
       H  5.89502e-03  1.01686e-03 -8.72644e-03
       O  6.85245e-05  1.44191e-03  1.05261e-04
       H -2.97399e-03 -9.47331e-04  2.59253e-03
       H  5.03360e-04 -1.90529e-03  2.41417e-03
       O  1.46451e-03  1.47566e-03 -8.66369e-04
       H  4.29836e-03 -5.09814e-03  1.44507e-03
       H  1.03050e-03 -4.85328e-03  2.19693e-03
       O -5.86869e-04 -1.08009e-03  2.78833e-04
       H -5.11319e-04  3.34089e-03  1.17565e-03
       H -4.15936e-03 -2.97249e-03  9.16242e-04
       O  1.81735e-03 -2.25540e-04  7.92414e-04
       H -2.25512e-03  4.35393e-03 -1.31618e-03
       H  7.72799e-03  3.65894e-03 -3.39358e-04
       O -6.78295e-04 -5.79263e-04 -1.46014e-03
       H -2.15768e-03 -6.38013e-04 -5.12278e-04
       H -6.71270e-03 -6.37038e-03 -2.46459e-03
192
# CELL(abcABC):   16.99620    29.43815    27.67315    90.00000    90.00000    90.00000  Step:          20  Bead:      22 velocities{atomic_unit}  cell{atomic_unit}
       O  1.32365e-03  1.53280e-04  1.32106e-03
       H -8.50324e-04 -9.22829e-04  3.55070e-03
       H  6.40226e-03  5.32778e-03 -1.79060e-03
       O  1.10644e-04  1.46829e-03  1.12892e-03
       H -1.01108e-03  1.61378e-03  3.84245e-03
       H  5.98354e-03  2.41013e-03  9.12095e-04
       O -9.07866e-04  1.98121e-04 -1.65829e-04
       H  1.56340e-03 -1.88384e-04 -2.05108e-03
       H -8.44854e-04 -3.93280e-03  6.26777e-04
       O -8.94718e-04  1.93756e-04  4.37331e-04
       H  2.62488e-03 -5.10333e-03  1.32904e-03
       H -9.23829e-03  5.36739e-04  4.52920e-03
       O  6.57703e-04  8.36735e-04  1.84397e-03
       H  9.73566e-04  4.05858e-03 -6.19563e-03
       H  1.34306e-03  1.23926e-03 -3.28797e-03
       O  6.85946e-05  1.52859e-03  5.63989e-04
       H -5.32767e-04 -6.93938e-03 -3.73786e-03
       H -9.72534e-04 -1.77661e-03 -1.26262e-03
       O -1.03557e-03  3.87865e-04  8.86959e-04
       H -4.69700e-03  2.63305e-03 -1.15954e-03
       H -2.63843e-03 -2.37305e-03 -7.87140e-04
       O  7.59155e-04  4.16189e-04  1.20789e-03
       H  4.80622e-03 -1.70880e-03  3.21282e-03
       H -3.60435e-04 -3.10211e-03 -4.22134e-03
       O -1.78246e-03  4.59034e-04 -1.80766e-05
       H -1.26067e-03 -6.74585e-03  1.03478e-03
       H  1.00194e-03 -5.23906e-03 -7.04226e-03
       O  3.55307e-04  1.70986e-03  5.17709e-04
       H  1.13942e-03  2.85692e-03 -2.22715e-03
       H -4.13532e-03  2.49752e-03 -3.49347e-03
       O -4.18596e-04 -1.68101e-04  1.90058e-03
       H -5.39213e-03  3.68588e-03 -2.22579e-03
       H  1.36449e-03 -6.12932e-04 -2.38712e-03
       O -2.79141e-04  4.69231e-04  2.22414e-04
       H -2.11621e-04  1.23532e-03 -3.37951e-03
       H -1.26609e-03  3.23476e-03  8.83121e-04
       O -1.20103e-03  4.18216e-04 -4.07471e-05
       H  3.09915e-03  1.85788e-04  1.15734e-04
       H -8.78360e-04  1.87865e-03 -5.78040e-03
       O  4.95821e-05  1.05536e-03 -1.40290e-03
       H -3.44527e-03  5.78602e-03  5.31955e-03
       H  4.14618e-03  5.10099e-03 -5.63129e-03
       O -2.25126e-04  1.11408e-03  5.89061e-04
       H -6.46378e-03 -8.77594e-04 -5.71470e-04
       H  2.48540e-03  2.99420e-03  1.23196e-03
       O  2.35041e-04  3.49880e-03  2.39675e-04
       H -2.13928e-03  4.59620e-05  3.53694e-03
       H  4.71539e-04  5.68580e-03  3.03953e-03
       O -5.81919e-04  8.12284e-04 -6.09192e-04
       H  6.46914e-04 -1.44434e-03  4.70034e-04
       H -1.45382e-03 -1.19567e-03  1.98497e-03
       O -1.87406e-03  1.19610e-03  3.66614e-05
       H  1.58087e-03  3.22838e-03  1.43906e-03
       H  4.40717e-03  3.06758e-04  1.78242e-04
       O  1.29679e-03 -1.87215e-03 -8.51922e-04
       H  2.75252e-03 -6.79962e-04  4.29175e-04
       H -3.10344e-03  3.33021e-04 -4.84865e-03
       O -1.37021e-03  1.66514e-03  9.15737e-04
       H  2.18684e-03 -2.74700e-03 -1.92084e-03
       H -2.56112e-03 -2.42462e-03  4.43209e-03
       O  7.54938e-04  9.51781e-04 -3.83294e-04
       H -3.03509e-03  5.80106e-03  2.38126e-03
       H  3.04934e-03 -1.66829e-03  4.35734e-03
       O  3.05333e-04 -9.46416e-04 -7.78637e-04
       H -6.02408e-04 -7.57377e-03 -3.51353e-03
       H  3.08555e-03 -6.19552e-04  1.62046e-03
       O -2.31325e-04 -5.26390e-05  9.55336e-04
       H  5.90242e-03  2.64805e-03 -1.73284e-03
       H -8.15280e-05  2.32400e-03  6.71581e-03
       O -6.55941e-04 -1.28997e-04 -1.55557e-03
       H -3.29760e-04  4.29142e-03 -2.13227e-03
       H -2.25705e-03 -3.80387e-03 -1.70561e-03
       O  2.09201e-04 -5.19064e-04 -1.37526e-03
       H  2.93584e-03 -7.56943e-04 -4.84867e-04
       H -6.68011e-03 -8.63293e-06 -3.14313e-03
       O  1.24254e-04 -4.72241e-04  1.38216e-03
       H -1.40378e-03  2.29737e-03 -3.28725e-03
       H -4.19736e-03 -2.54410e-03 -7.91506e-04
       O -1.73540e-03 -6.13699e-04  1.16954e-04
       H -2.86352e-03 -2.40936e-03 -1.16066e-03
       H  4.29947e-03 -1.52757e-03 -1.78959e-04
       O  9.18486e-04 -1.24180e-03 -1.63928e-04
       H -3.22560e-03 -3.69097e-03 -2.64212e-03
       H  3.92642e-03  1.82674e-04  8.05058e-06
       O  1.02528e-03  5.06910e-04 -6.32316e-04
       H  3.09721e-04  1.51671e-03  4.60100e-03
       H -1.65466e-03 -2.56607e-03 -3.61478e-03
       O -8.99390e-04 -1.08938e-04  2.69992e-05
       H -2.24229e-03  5.87776e-03 -8.44023e-03
       H  1.67620e-03 -7.01859e-04 -1.66513e-04
       O  4.50288e-04 -1.55149e-05  8.14464e-04
       H  8.48753e-05  3.59216e-03 -6.71467e-03
       H -5.12482e-04 -5.98914e-04  4.23685e-03
       O  1.99539e-04  7.88451e-05 -4.43945e-04
       H -5.34669e-03  2.90089e-03 -4.25552e-03
       H -1.07360e-03  6.69489e-04  2.14195e-03
       O  1.23001e-03 -7.80118e-04 -1.32450e-03
       H  2.54086e-03  9.40506e-04 -7.06793e-04
       H -1.70911e-03 -5.91979e-03  3.85210e-03
       O  1.91832e-03  7.91096e-04 -8.98864e-04
       H  2.77767e-03  1.82664e-03 -4.28481e-03
       H  2.30117e-03 -1.22357e-03 -4.66572e-03
       O  2.90374e-04  6.97152e-04 -2.01540e-03
       H -1.85956e-03  3.36479e-03  3.58684e-03
       H -9.00813e-05  4.47547e-03  7.11938e-03
       O  3.16254e-04 -3.13005e-04  1.17207e-03
       H -2.21069e-03  3.31651e-03  4.80773e-03
       H -6.68519e-03  5.28451e-03  1.90684e-03
       O -4.43493e-04 -5.80592e-04  2.46134e-04
       H -3.26392e-03 -1.14803e-03  2.45896e-03
       H  1.55977e-03 -3.27934e-03 -2.43190e-03
       O  2.78758e-04  5.19230e-04 -1.43202e-03
       H -1.93304e-03 -5.33503e-03  1.57138e-03
       H -6.73197e-04 -7.93810e-04  1.27118e-03
       O  1.11313e-03  6.99588e-05  1.82943e-03
       H  2.08102e-03 -9.30352e-04 -1.93129e-03
       H  1.20304e-03  2.24911e-03 -7.42484e-03
       O  3.96802e-04  1.35014e-04 -9.39831e-04
       H  2.18414e-03  3.04557e-03  6.18623e-03
       H -1.91342e-03  3.79323e-03  5.22724e-03
       O -3.47905e-04 -9.50760e-04 -1.97803e-03
       H -3.29319e-03  2.37973e-03  7.50109e-04
       H -2.87987e-03  4.07456e-03 -1.19765e-03
       O -1.92414e-04  9.76719e-04  9.19933e-05
       H -1.41353e-03 -1.32361e-03  2.49802e-04
       H  6.44993e-03 -5.60145e-03 -2.75620e-03
       O  2.72807e-03 -1.07818e-03 -3.34901e-04
       H -1.63288e-03  2.26705e-03 -5.13487e-03
       H -2.43400e-03  9.49309e-04  2.86400e-03
       O  1.47365e-03 -2.23179e-04  2.31109e-04
       H  5.70847e-03 -1.62301e-03  7.81482e-03
       H  4.10709e-03 -4.69930e-04 -1.98186e-03
       O -1.77975e-03 -4.16386e-04  5.61159e-05
       H  1.02881e-04 -4.60843e-03  3.61737e-03
       H  1.06543e-05  2.68320e-03 -3.37690e-03
       O  4.76049e-04 -3.12607e-04 -4.70617e-04
       H -2.51568e-03  1.30227e-03  4.31898e-03
       H  7.18202e-03  2.47897e-03 -6.76028e-03
       O  8.15095e-04  2.00581e-04  1.86913e-03
       H -6.85089e-03  1.19876e-04 -4.34763e-03
       H  2.08201e-03 -2.27119e-03 -9.44929e-04
       O  2.53283e-03 -1.03365e-06  1.90685e-03
       H  7.25498e-03 -1.39762e-03 -1.62644e-04
       H  2.10940e-03  3.36039e-03  5.10288e-03
       O -4.59870e-04  9.36407e-04 -1.03899e-03
       H -2.68591e-03 -1.65952e-03 -3.75227e-03
       H  3.33184e-03  3.41025e-03 -2.86151e-03
       O  4.05772e-04  1.86527e-04  1.63106e-03
       H -1.11085e-03  3.57634e-04  2.71082e-03
       H -5.06873e-03  5.90919e-03  2.18416e-04
       O  1.63662e-03 -3.10587e-04  1.55445e-03
       H  2.41849e-03 -3.63447e-03 -1.31110e-03
       H  3.59557e-03 -3.51906e-03  1.33522e-03
       O -1.43576e-03 -9.86513e-04  8.53936e-04
       H  6.16818e-03  1.88791e-03 -4.94025e-03
       H -6.41523e-04  3.81440e-04  1.27012e-03
       O -1.63106e-03  5.68485e-04  1.43656e-03
       H -1.89923e-03 -4.19579e-04 -1.72018e-03
       H  2.67652e-03 -4.92971e-03 -3.36037e-03
       O  1.29922e-03  1.94145e-03 -1.40781e-03
       H -4.72953e-03 -8.65566e-04 -5.78015e-04
       H -3.70198e-03  8.30847e-03  1.71566e-03
       O  4.87952e-04  9.82815e-04  9.56303e-04
       H  5.72238e-03 -4.01211e-03  4.99153e-04
       H -7.20753e-04  6.31493e-03  1.55251e-03
       O  4.04027e-04 -1.06437e-03 -7.66283e-04
       H  1.67744e-03  4.38688e-03 -9.53051e-03
       H  3.57026e-03 -9.41994e-04  6.60715e-03
       O -4.07881e-05  3.03212e-04  1.48017e-04
       H  5.24485e-03  5.49166e-04  1.23338e-03
       H  2.53571e-03  4.68133e-03  2.09317e-03
       O -2.36038e-04 -8.79087e-04 -7.03762e-04
       H  5.78463e-03  2.23783e-03  5.37194e-03
       H  3.61997e-03  3.00324e-03  2.25727e-03
       O -6.77961e-04 -1.50488e-03 -3.73446e-04
       H  2.38003e-03  4.77282e-04 -6.01854e-03
       H -1.58772e-03  5.77246e-04  8.19678e-04
       O -6.76998e-04 -9.84413e-04 -1.76811e-03
       H  2.41606e-03  2.75925e-04  2.32964e-04
       H  7.32630e-03 -6.11725e-04  6.80963e-05
       O  1.38231e-04 -5.95142e-04  8.33855e-04
       H  1.51076e-03 -5.19109e-04  1.07761e-03
       H -2.07269e-03  2.10563e-03 -5.35472e-03
       O -2.16847e-03 -8.67210e-05 -6.87240e-06
       H  1.40931e-03 -2.40768e-03  2.54137e-03
       H  4.79266e-03 -7.67308e-03 -2.19652e-03
       O -4.92134e-04  1.39860e-03 -2.41706e-04
       H  4.69369e-04  1.55651e-03  5.12746e-03
       H -1.83252e-03 -2.96013e-03  2.95330e-03
       O -4.96640e-04 -1.02019e-04 -9.63821e-04
       H  1.44344e-03  2.35252e-04  2.02986e-03
       H  1.23596e-03  1.84101e-03  5.21500e-03
192
# CELL(abcABC):   16.99620    29.43815    27.67315    90.00000    90.00000    90.00000  Step:          30  Bead:      22 velocities{atomic_unit}  cell{atomic_unit}
       O  1.05757e-03  1.38957e-04  5.63614e-04
       H -2.54691e-03 -3.04722e-03  1.27847e-03
       H -2.11436e-03 -4.39677e-03 -1.48877e-03
       O -5.32669e-04  3.62448e-04 -2.88616e-04
       H  4.70830e-03 -5.76696e-03 -5.67936e-03
       H -1.97940e-03 -1.60502e-03  4.43009e-04
       O -8.78589e-04  8.17781e-04  3.17998e-04
       H  6.44406e-04 -2.86684e-03  7.33675e-03
       H -3.55682e-03 -4.38314e-03 -6.59254e-05
       O -2.02582e-03 -8.02203e-05  3.81064e-05
       H  2.03048e-03 -4.55075e-03 -6.76519e-03
       H  1.97529e-03 -4.70256e-03 -4.24777e-03
       O -6.39550e-04  4.80479e-05 -3.78589e-04
       H  3.58774e-03  5.84083e-03 -5.78503e-04
       H  3.88246e-03 -8.59025e-04  5.18848e-03
       O  8.90027e-04  1.17677e-04 -2.09196e-04
       H -6.38722e-03 -3.86923e-04 -5.03341e-03
       H -4.77990e-03 -9.09800e-07 -1.13640e-03
       O  7.86174e-04 -3.81150e-04 -1.18377e-03
       H  5.72669e-03  5.97729e-03  4.59694e-03
       H -5.24964e-03 -2.31996e-03  1.74667e-03
       O  6.29705e-04  4.64587e-04  1.22193e-03
       H  2.02433e-03 -5.27667e-03  1.09318e-03
       H -9.33931e-04 -3.70361e-04  1.03885e-03
       O  3.10963e-04  8.68598e-04 -5.42901e-04
       H  8.34958e-04  1.68488e-03 -1.10552e-03
       H  5.05933e-05  1.45924e-03 -2.61104e-03
       O -1.73197e-04 -3.09079e-04  8.98907e-04
       H  3.83351e-03 -3.30201e-03  9.36287e-04
       H  6.65241e-04  1.31755e-04 -3.77537e-04
       O  1.72079e-03 -8.23527e-04  1.69102e-03
       H -4.14642e-03  4.84266e-03  2.00114e-03
       H -2.65993e-03 -4.67383e-03  3.80481e-03
       O  5.61808e-04  7.94172e-04 -2.57275e-04
       H  6.71232e-04  3.30687e-03  5.27964e-03