192
# CELL(abcABC):   16.99620    29.43815    27.67315    90.00000    90.00000    90.00000  Step:           0  Bead:      19 positions{atomic_unit}  cell{atomic_unit}
       O -8.22215e+00 -9.94239e+00 -1.31733e+01
       H  7.30664e+00 -1.09711e+01 -1.36322e+01
       H -6.70615e+00 -1.09482e+01 -1.35006e+01
       O -3.97298e+00 -2.58228e+00 -1.31734e+01
       H -5.44033e+00 -3.61131e+00 -1.36317e+01
       H -2.45697e+00 -3.58820e+00 -1.35005e+01
       O -3.95756e+00 -1.25543e+01 -7.82386e-01
       H -3.95604e+00 -1.43515e+01 -2.29143e-01
       H -4.14759e+00 -1.25671e+01 -2.59983e+00
       O -8.20667e+00 -5.19495e+00 -7.82227e-01
       H -8.20527e+00 -6.99211e+00 -2.28860e-01
       H -8.39642e+00 -5.20788e+00 -2.59970e+00
       O -4.52495e+00 -1.21366e+01 -6.25523e+00
       H -6.04104e+00 -1.11308e+01 -6.58223e+00
       H -3.05766e+00 -1.11077e+01 -6.71383e+00
       O  8.22247e+00 -4.77716e+00 -6.25561e+00
       H  6.70639e+00 -3.77128e+00 -6.58235e+00
       H -7.30644e+00 -3.74813e+00 -6.71411e+00
       O  8.20650e+00 -9.52435e+00 -7.70064e+00
       H  8.39647e+00 -9.51190e+00 -9.51809e+00
       H  8.20529e+00 -7.72704e+00 -7.14768e+00
       O -4.54027e+00 -2.16431e+00 -7.70075e+00
       H -4.35006e+00 -2.15153e+00 -9.51816e+00
       H -4.54166e+00 -3.67089e-01 -7.14744e+00
       O -8.22211e+00 -9.94193e+00  6.63469e-01
       H  7.30672e+00 -1.09707e+01  2.04633e-01
       H -6.70609e+00 -1.09478e+01  3.36365e-01
       O -3.97290e+00 -2.58257e+00  6.63081e-01
       H -5.44032e+00 -3.61148e+00  2.04655e-01
       H -2.45688e+00 -3.58848e+00  3.35971e-01
       O -3.95760e+00 -1.25545e+01  1.30538e+01
       H -3.95614e+00 -1.43517e+01  1.36071e+01
       H -4.14757e+00 -1.25673e+01  1.12363e+01
       O -8.20656e+00 -5.19529e+00  1.30545e+01
       H -8.20517e+00 -6.99250e+00  1.36078e+01
       H -8.39634e+00 -5.20824e+00  1.12370e+01
       O -4.52490e+00 -1.21367e+01  7.58138e+00
       H -6.04102e+00 -1.11309e+01  7.25435e+00
       H -3.05757e+00 -1.11078e+01  7.12272e+00
       O  8.22232e+00 -4.77760e+00  7.58065e+00
       H  6.70627e+00 -3.77169e+00  7.25392e+00
       H -7.30657e+00 -3.74862e+00  7.12211e+00
       O  8.20656e+00 -9.52478e+00  6.13597e+00
       H  8.39651e+00 -9.51229e+00  4.31849e+00
       H  8.20527e+00 -7.72747e+00  6.68889e+00
       O -4.54025e+00 -2.16471e+00  6.13560e+00
       H -4.34999e+00 -2.15183e+00  4.31818e+00
       H -4.54168e+00 -3.67533e-01  6.68897e+00
       O -8.22212e+00  4.77724e+00 -1.31733e+01
       H  7.30671e+00  3.74833e+00 -1.36320e+01
       H -6.70607e+00  3.77135e+00 -1.35002e+01
       O -3.97288e+00  1.21369e+01 -1.31734e+01
       H -5.44030e+00  1.11079e+01 -1.36317e+01
       H -2.45689e+00  1.11310e+01 -1.35006e+01
       O -3.95757e+00  2.16435e+00 -7.82368e-01
       H -3.95607e+00  3.67109e-01 -2.29207e-01
       H -4.14756e+00  2.15166e+00 -2.59983e+00
       O -8.20667e+00  9.52420e+00 -7.81868e-01
       H -8.20527e+00  7.72699e+00 -2.28645e-01
       H -8.39652e+00  9.51128e+00 -2.59932e+00
       O -4.52494e+00  2.58246e+00 -6.25501e+00
       H -6.04100e+00  3.58821e+00 -6.58223e+00
       H -3.05758e+00  3.61139e+00 -6.71360e+00
       O  8.22236e+00  9.94146e+00 -6.25587e+00
       H  6.70631e+00  1.09474e+01 -6.58279e+00
       H -7.30653e+00  1.09705e+01 -6.71435e+00
       O  8.20665e+00  5.19438e+00 -7.70097e+00
       H  8.39659e+00  5.20693e+00 -9.51844e+00
       H  8.20533e+00  6.99167e+00 -7.14797e+00
       O -4.54026e+00  1.25545e+01 -7.70081e+00
       H -4.34992e+00  1.25674e+01 -9.51823e+00
       H -4.54169e+00  1.43517e+01 -7.14749e+00
       O -8.22210e+00  4.77691e+00  6.62996e-01
       H  7.30665e+00  3.74808e+00  2.04431e-01
       H -6.70613e+00  3.77091e+00  3.36028e-01
       O -3.97279e+00  1.21369e+01  6.63306e-01
       H -5.44019e+00  1.11079e+01  2.05006e-01
       H -2.45681e+00  1.11309e+01  3.36133e-01
       O -3.95757e+00  2.16479e+00  1.30545e+01
       H -3.95616e+00  3.67575e-01  1.36077e+01
       H -4.14769e+00  2.15200e+00  1.12370e+01
       O -8.20659e+00  9.52434e+00  1.30546e+01
       H -8.20522e+00  7.72713e+00  1.36079e+01
       H -8.39644e+00  9.51145e+00  1.12371e+01
       O -4.52499e+00  2.58228e+00  7.58148e+00
       H -6.04100e+00  3.58814e+00  7.25437e+00
       H -3.05766e+00  3.61126e+00  7.12297e+00
       O  8.22229e+00  9.94203e+00  7.58108e+00
       H  6.70627e+00  1.09480e+01  7.25419e+00
       H -7.30655e+00  1.09710e+01  7.12260e+00
       O  8.20668e+00  5.19493e+00  6.13567e+00
       H  8.39670e+00  5.20749e+00  4.31823e+00
       H  8.20535e+00  6.99219e+00  6.68874e+00
       O -4.54018e+00  1.25546e+01  6.13603e+00
       H -4.34989e+00  1.25674e+01  4.31861e+00
       H -4.54161e+00  1.43518e+01  6.68925e+00
       O  2.75877e-01 -9.94198e+00 -1.31737e+01
       H -1.19147e+00 -1.09709e+01 -1.36323e+01
       H  1.79191e+00 -1.09478e+01 -1.35009e+01
       O  4.52479e+00 -2.58220e+00 -1.31736e+01
       H  3.05750e+00 -3.61120e+00 -1.36322e+01
       H  6.04084e+00 -3.58815e+00 -1.35003e+01
       O  4.54038e+00 -1.25538e+01 -7.82378e-01
       H  4.54166e+00 -1.43510e+01 -2.29173e-01
       H  4.35042e+00 -1.25666e+01 -2.59983e+00
       O  2.91382e-01 -5.19489e+00 -7.82498e-01
       H  2.92775e-01 -6.99208e+00 -2.29179e-01
       H  1.01240e-01 -5.20770e+00 -2.59994e+00
       O  3.97307e+00 -1.21369e+01 -6.25482e+00
       H  2.45707e+00 -1.11310e+01 -6.58187e+00
       H  5.44043e+00 -1.11080e+01 -6.71350e+00
       O -2.76167e-01 -4.77714e+00 -6.25484e+00
       H -1.79215e+00 -3.77120e+00 -6.58193e+00
       H  1.19122e+00 -3.74822e+00 -6.71327e+00
       O -2.91294e-01 -9.52406e+00 -7.70061e+00
       H -1.01153e-01 -9.51128e+00 -9.51804e+00
       H -2.92737e-01 -7.72684e+00 -7.14734e+00
       O  3.95740e+00 -2.16468e+00 -7.70029e+00
       H  4.14711e+00 -2.15178e+00 -9.51779e+00
       H  3.95613e+00 -3.67477e-01 -7.14700e+00
       O  2.75838e-01 -9.94166e+00  6.63265e-01
       H -1.19143e+00 -1.09706e+01  2.04532e-01
       H  1.79197e+00 -1.09474e+01  3.36068e-01
       O  4.52471e+00 -2.58218e+00  6.62891e-01
       H  3.05743e+00 -3.61117e+00  2.04240e-01
       H  6.04080e+00 -3.58806e+00  3.36089e-01
       O  4.54037e+00 -1.25543e+01  1.30539e+01
       H  4.54173e+00 -1.43516e+01  1.36070e+01
       H  4.35050e+00 -1.25670e+01  1.12364e+01
       O  2.91297e-01 -5.19502e+00  1.30541e+01
       H  2.92732e-01 -6.99225e+00  1.36074e+01
       H  1.01206e-01 -5.20786e+00  1.12367e+01
       O  3.97310e+00 -1.21368e+01  7.58177e+00
       H  2.45707e+00 -1.11309e+01  7.25464e+00
       H  5.44051e+00 -1.11080e+01  7.12302e+00
       O -2.76100e-01 -4.77767e+00  7.58136e+00
       H -1.79210e+00 -3.77177e+00  7.25428e+00
       H  1.19125e+00 -3.74871e+00  7.12290e+00
       O -2.91340e-01 -9.52458e+00  6.13593e+00
       H -1.01282e-01 -9.51181e+00  4.31852e+00
       H -2.92762e-01 -7.72734e+00  6.68916e+00
       O  3.95728e+00 -2.16475e+00  6.13602e+00
       H  4.14704e+00 -2.15175e+00  4.31853e+00
       H  3.95603e+00 -3.67615e-01  6.68942e+00
       O  2.75872e-01  4.77775e+00 -1.31735e+01
       H -1.19145e+00  3.74868e+00 -1.36320e+01
       H  1.79192e+00  3.77189e+00 -1.35005e+01
       O  4.52473e+00  1.21369e+01 -1.31737e+01
       H  3.05744e+00  1.11080e+01 -1.36325e+01
       H  6.04082e+00  1.11311e+01 -1.35004e+01
       O  4.54033e+00  2.16480e+00 -7.82502e-01
       H  4.54166e+00  3.67553e-01 -2.29384e-01
       H  4.35052e+00  2.15214e+00 -2.60000e+00
       O  2.91442e-01  9.52423e+00 -7.82681e-01
       H  2.92837e-01  7.72701e+00 -2.29452e-01
       H  1.01299e-01  9.51146e+00 -2.60013e+00
       O  3.97319e+00  2.58230e+00 -6.25496e+00
       H  2.45717e+00  3.58819e+00 -6.58198e+00
       H  5.44056e+00  3.61109e+00 -6.71379e+00
       O -2.76125e-01  9.94167e+00 -6.25515e+00
       H -1.79212e+00  1.09476e+01 -6.58222e+00
       H  1.19126e+00  1.09706e+01 -6.71377e+00
       O -2.91369e-01  5.19475e+00 -7.70046e+00
       H -1.01380e-01  5.20765e+00 -9.51793e+00
       H -2.92793e-01  6.99195e+00 -7.14718e+00
       O  3.95737e+00  1.25543e+01 -7.70076e+00
       H  4.14703e+00  1.25673e+01 -9.51824e+00
       H  3.95606e+00  1.43514e+01 -7.14726e+00
       O  2.75794e-01  4.77734e+00  6.62959e-01
       H -1.19152e+00  3.74832e+00  2.04499e-01
       H  1.79186e+00  3.77147e+00  3.35887e-01
       O  4.52464e+00  1.21373e+01  6.62988e-01
       H  3.05745e+00  1.11082e+01  2.04218e-01
       H  6.04076e+00  1.11314e+01  3.36450e-01
       O  4.54041e+00  2.16499e+00  1.30543e+01
       H  4.54178e+00  3.67749e-01  1.36074e+01
       H  4.35054e+00  2.15228e+00  1.12368e+01
       O  2.91308e-01  9.52457e+00  1.30538e+01
       H  2.92715e-01  7.72735e+00  1.36071e+01
       H  1.01225e-01  9.51181e+00  1.12363e+01
       O  3.97315e+00  2.58235e+00  7.58152e+00
       H  2.45713e+00  3.58829e+00  7.25455e+00
       H  5.44048e+00  3.61122e+00  7.12279e+00
       O -2.76008e-01  9.94202e+00  7.58171e+00
       H -1.79205e+00  1.09479e+01  7.25468e+00
       H  1.19134e+00  1.09710e+01  7.12317e+00
       O -2.91416e-01  5.19510e+00  6.13606e+00
       H -1.01371e-01  5.20795e+00  4.31863e+00
       H -2.92777e-01  6.99228e+00  6.68938e+00
       O  3.95729e+00  1.25546e+01  6.13612e+00
       H  4.14688e+00  1.25676e+01  4.31864e+00
       H  3.95603e+00  1.43518e+01  6.68952e+00
192
# CELL(abcABC):   16.99620    29.43815    27.67315    90.00000    90.00000    90.00000  Step:          10  Bead:      19 positions{atomic_unit}  cell{atomic_unit}
       O -8.18085e+00 -9.87524e+00 -1.30906e+01
       H  7.17938e+00 -1.07865e+01 -1.36198e+01
       H -6.69535e+00 -1.09692e+01 -1.35224e+01
       O -3.94765e+00 -2.52601e+00 -1.31921e+01
       H -5.38087e+00 -3.62208e+00 -1.35675e+01
       H -2.41907e+00 -3.22745e+00 -1.35179e+01
       O -3.96670e+00 -1.25199e+01 -8.27225e-01
       H -4.17051e+00 -1.43096e+01 -6.07880e-01
       H -4.28675e+00 -1.29161e+01 -2.55324e+00
       O -8.22405e+00 -5.18817e+00 -8.27576e-01
       H -8.33397e+00 -6.82364e+00 -2.11260e-01
       H -8.67856e+00 -5.17140e+00 -2.58516e+00
       O -4.54558e+00 -1.21760e+01 -6.30307e+00
       H -5.88287e+00 -1.10698e+01 -6.60109e+00
       H -2.99406e+00 -1.11214e+01 -6.76506e+00
       O  8.23280e+00 -4.76934e+00 -6.25793e+00
       H  6.81132e+00 -3.82738e+00 -6.72867e+00
       H -7.48537e+00 -3.95149e+00 -6.92774e+00
       O  8.19730e+00 -9.55522e+00 -7.62000e+00
       H  8.34878e+00 -9.43574e+00 -9.69888e+00
       H  7.99982e+00 -7.94327e+00 -7.06426e+00
       O -4.50112e+00 -2.15148e+00 -7.69453e+00
       H -4.28050e+00 -2.06800e+00 -9.44910e+00
       H -4.74811e+00 -3.62022e-01 -7.07514e+00
       O -8.23184e+00 -9.91160e+00  6.39732e-01
       H  7.37511e+00 -1.09177e+01  2.71580e-01
       H -6.94156e+00 -1.09581e+01  3.74695e-01
       O -3.98140e+00 -2.52682e+00  6.94263e-01
       H -5.43695e+00 -3.54354e+00  4.88431e-01
       H -2.56305e+00 -3.75643e+00  2.65852e-01
       O -3.87738e+00 -1.25310e+01  1.30771e+01
       H -3.92659e+00 -1.43485e+01  1.34352e+01
       H -4.30385e+00 -1.23990e+01  1.14185e+01
       O -8.19578e+00 -5.18850e+00  1.31036e+01
       H -8.16283e+00 -6.80540e+00  1.33120e+01
       H -8.61642e+00 -4.92131e+00  1.13585e+01
       O -4.52365e+00 -1.21568e+01  7.60111e+00
       H -5.96164e+00 -1.11937e+01  7.27107e+00
       H -3.08856e+00 -1.08653e+01  7.25652e+00
       O  8.19299e+00 -4.77971e+00  7.48953e+00
       H  6.79250e+00 -3.87183e+00  7.11904e+00
       H -7.22316e+00 -3.86330e+00  7.22076e+00
       O  8.15813e+00 -9.57988e+00  6.11008e+00
       H  8.41476e+00 -9.21896e+00  4.41554e+00
       H  8.38460e+00 -7.81868e+00  6.69799e+00
       O -4.55064e+00 -2.13990e+00  6.13719e+00
       H -4.46204e+00 -2.36329e+00  4.29189e+00
       H -4.45732e+00 -2.13319e-01  6.78636e+00
       O -8.21019e+00  4.75646e+00 -1.32510e+01
       H  7.35526e+00  3.67208e+00 -1.35971e+01
       H -6.65202e+00  3.53704e+00 -1.35823e+01
       O -3.96990e+00  1.21379e+01 -1.31438e+01
       H -5.53414e+00  1.14038e+01 -1.37996e+01
       H -2.16219e+00  1.11379e+01 -1.33065e+01
       O -4.01091e+00  2.17541e+00 -7.88720e-01
       H -4.08979e+00  4.57385e-01 -4.55446e-01
       H -4.18229e+00  2.32876e+00 -2.61825e+00
       O -8.20887e+00  9.55350e+00 -7.71837e-01
       H -8.31938e+00  7.70520e+00 -3.05919e-01
       H -8.01283e+00  9.46887e+00 -2.67557e+00
       O -4.58772e+00  2.57364e+00 -6.22733e+00
       H -6.07056e+00  3.67491e+00 -6.46861e+00
       H -2.97134e+00  3.76749e+00 -6.36538e+00
       O  8.20189e+00  9.93780e+00 -6.26630e+00
       H  6.61414e+00  1.07926e+01 -6.42067e+00
       H -7.13946e+00  1.11464e+01 -6.60275e+00
       O  8.17518e+00  5.16822e+00 -7.68538e+00
       H  8.56265e+00  5.15582e+00 -9.35423e+00
       H  8.16995e+00  7.25927e+00 -7.01044e+00
       O -4.58913e+00  1.25819e+01 -7.68157e+00
       H -4.54030e+00  1.25657e+01 -9.37717e+00
       H -4.42681e+00  1.45390e+01 -7.30444e+00
       O -8.17470e+00  4.71133e+00  6.28769e-01
       H  7.49283e+00  3.39302e+00  2.01286e-01
       H -6.75794e+00  3.81657e+00  5.58642e-01
       O -4.00803e+00  1.21300e+01  6.27488e-01
       H -5.60856e+00  1.10084e+01  2.53835e-01
       H -2.47021e+00  1.13056e+01  3.33136e-01
       O -3.99996e+00  2.18624e+00  1.30872e+01
       H -4.21977e+00  3.11351e-01  1.33709e+01
       H -3.91579e+00  2.12324e+00  1.13197e+01
       O -8.20060e+00  9.46362e+00  1.30753e+01
       H -7.98084e+00  7.57339e+00  1.34602e+01
       H -8.39560e+00  9.52795e+00  1.12058e+01
       O -4.52024e+00  2.54890e+00  7.53246e+00
       H -5.97084e+00  3.66369e+00  7.32433e+00
       H -3.09588e+00  3.41744e+00  6.84433e+00
       O  8.20780e+00  9.98947e+00  7.60802e+00
       H  6.67471e+00  1.09125e+01  7.00200e+00
       H -7.46017e+00  1.09925e+01  7.23698e+00
       O  8.28846e+00  5.10763e+00  6.16524e+00
       H  8.57219e+00  5.37702e+00  4.43145e+00
       H  8.07513e+00  6.85939e+00  6.65357e+00
       O -4.54690e+00  1.25490e+01  6.10064e+00
       H -4.68472e+00  1.28668e+01  4.05121e+00
       H -4.49920e+00  1.42329e+01  6.90588e+00
       O  2.73636e-01 -9.94981e+00 -1.31494e+01
       H -1.29682e+00 -1.10536e+01 -1.36348e+01
       H  1.93259e+00 -1.08467e+01 -1.34202e+01
       O  4.60101e+00 -2.61201e+00 -1.31351e+01
       H  3.24862e+00 -4.02939e+00 -1.38965e+01
       H  5.79900e+00 -3.64729e+00 -1.36155e+01
       O  4.53922e+00 -1.25073e+01 -8.43755e-01
       H  4.51908e+00 -1.43628e+01 -5.59002e-01
       H  4.55292e+00 -1.26887e+01 -2.53573e+00
       O  2.82732e-01 -5.25657e+00 -7.81750e-01
       H  2.14672e-01 -7.01270e+00 -2.78375e-01
       H  4.21189e-01 -5.17190e+00 -2.66894e+00
       O  3.95890e+00 -1.22168e+01 -6.12539e+00
       H  2.42282e+00 -1.12701e+01 -6.48654e+00
       H  5.37499e+00 -1.11430e+01 -6.52587e+00
       O -2.96902e-01 -4.74476e+00 -6.29400e+00
       H -1.85587e+00 -3.87364e+00 -6.57790e+00
       H  1.23555e+00 -3.55911e+00 -6.96603e+00
       O -3.56299e-01 -9.54765e+00 -7.69630e+00
       H -1.88022e-01 -9.41677e+00 -9.46036e+00
       H -3.02347e-01 -7.76707e+00 -7.06637e+00
       O  3.94083e+00 -2.17323e+00 -7.70767e+00
       H  4.21055e+00 -2.27553e+00 -9.55370e+00
       H  3.90709e+00 -3.79047e-01 -7.05509e+00
       O  2.19748e-01 -9.94919e+00  6.30661e-01
       H -9.70189e-01 -1.10668e+01  1.12298e-01
       H  1.83085e+00 -1.08545e+01  5.95373e-01
       O  4.47898e+00 -2.59629e+00  6.29469e-01
       H  3.03700e+00 -3.74443e+00  2.13247e-01
       H  6.12755e+00 -3.66560e+00  1.79933e-01
       O  4.53792e+00 -1.24813e+01  1.30286e+01
       H  4.57793e+00 -1.45648e+01  1.34878e+01
       H  4.52051e+00 -1.25243e+01  1.12936e+01
       O  2.23834e-01 -5.23362e+00  1.30327e+01
       H  3.39718e-01 -7.21736e+00  1.38641e+01
       H  2.82724e-01 -5.37582e+00  1.10152e+01
       O  3.86562e+00 -1.21110e+01  7.62507e+00
       H  2.42246e+00 -1.11262e+01  7.33333e+00
       H  5.32587e+00 -1.11994e+01  7.05307e+00
       O -2.35925e-01 -4.83668e+00  7.61479e+00
       H -1.62081e+00 -4.05729e+00  7.29347e+00
       H  1.06457e+00 -3.92135e+00  7.21323e+00
       O -3.14087e-01 -9.51134e+00  6.15394e+00
       H -1.09555e-01 -9.53264e+00  4.20800e+00
       H -2.61445e-01 -7.80504e+00  6.76371e+00
       O  3.95243e+00 -2.23076e+00  6.11652e+00
       H  4.14065e+00 -2.39645e+00  4.41960e+00
       H  3.91859e+00 -3.66544e-01  6.46131e+00
       O  3.21684e-01  4.82237e+00 -1.31226e+01
       H -8.86363e-01  3.80356e+00 -1.37108e+01
       H  1.78018e+00  3.92057e+00 -1.37884e+01
       O  4.48504e+00  1.21545e+01 -1.31902e+01
       H  3.18227e+00  1.08891e+01 -1.34905e+01
       H  6.08587e+00  1.11558e+01 -1.34996e+01
       O  4.49577e+00  2.14785e+00 -7.86192e-01
       H  4.74773e+00  4.79961e-01 -5.45797e-03
       H  4.25209e+00  2.08354e+00 -2.54312e+00
       O  2.31422e-01  9.48835e+00 -7.58503e-01
       H  1.12172e-01  7.53072e+00  7.02821e-02
       H  9.49399e-02  9.21810e+00 -2.56407e+00
       O  3.93165e+00  2.54311e+00 -6.18850e+00
       H  2.43939e+00  3.41937e+00 -6.82983e+00
       H  5.48974e+00  3.51800e+00 -6.82460e+00
       O -2.36800e-01  9.86268e+00 -6.32227e+00
       H -2.00361e+00  1.08853e+01 -6.69312e+00
       H  1.44587e+00  1.11905e+01 -6.82544e+00
       O -3.19668e-01  5.16856e+00 -7.67246e+00
       H  1.08310e-01  5.17866e+00 -9.73499e+00
       H -3.17750e-01  6.83358e+00 -7.16313e+00
       O  3.93122e+00  1.25430e+01 -7.76135e+00
       H  4.23674e+00  1.26372e+01 -9.48740e+00
       H  4.04014e+00  1.42015e+01 -6.82944e+00
       O  2.52308e-01  4.70490e+00  7.11995e-01
       H -1.11218e+00  3.61520e+00  9.12133e-02
       H  1.63664e+00  3.85167e+00  4.07702e-01
       O  4.54843e+00  1.21326e+01  7.23168e-01
       H  2.97174e+00  1.12119e+01  2.12045e-01
       H  5.95437e+00  1.10560e+01  1.65880e-01
       O  4.54638e+00  2.17735e+00  1.30229e+01
       H  4.50844e+00  2.87070e-01  1.38197e+01
       H  4.36797e+00  1.88821e+00  1.14045e+01
       O  2.43553e-01  9.55249e+00  1.30294e+01
       H  2.77812e-01  7.63145e+00  1.35798e+01
       H  8.90103e-03  9.39958e+00  1.14425e+01
       O  3.88218e+00  2.57520e+00  7.60554e+00
       H  2.25554e+00  3.25178e+00  7.34173e+00
       H  5.57527e+00  3.60906e+00  7.29654e+00
       O -3.48292e-01  9.94273e+00  7.54954e+00
       H -1.57001e+00  1.11273e+01  7.29447e+00
       H  1.27795e+00  1.09856e+01  7.17363e+00
       O -2.85603e-01  5.22374e+00  6.06792e+00
       H -2.98796e-01  5.27792e+00  4.34383e+00
       H -2.68941e-01  7.01499e+00  6.70313e+00
       O  3.99311e+00  1.25204e+01  6.10980e+00
       H  4.24622e+00  1.26357e+01  4.24399e+00
       H  3.76228e+00  1.43076e+01  6.88356e+00
192
# CELL(abcABC):   16.99620    29.43815    27.67315    90.00000    90.00000    90.00000  Step:          20  Bead:      19 positions{atomic_unit}  cell{atomic_unit}
       O -8.12719e+00 -9.92023e+00 -1.30929e+01
       H  7.01683e+00 -1.09033e+01 -1.36436e+01
       H -6.36744e+00 -1.11801e+01 -1.36735e+01
       O -4.01005e+00 -2.51852e+00 -1.31644e+01
       H -5.29587e+00 -3.64780e+00 -1.35032e+01
       H -2.40582e+00 -3.22390e+00 -1.34627e+01
       O -3.98474e+00 -1.24679e+01 -8.91733e-01
       H -4.03623e+00 -1.45540e+01 -1.73834e-01
       H -4.47508e+00 -1.25411e+01 -2.64260e+00
       O -8.21640e+00 -5.15650e+00 -7.60053e-01
       H -8.21524e+00 -6.92971e+00 -2.01056e-01
       H -8.68755e+00 -5.23764e+00 -2.54472e+00
       O -4.51140e+00 -1.22327e+01 -6.31566e+00
       H -5.86075e+00 -1.10806e+01 -6.99716e+00
       H -2.61428e+00 -1.10227e+01 -6.73682e+00
       O  8.22680e+00 -4.77833e+00 -6.29221e+00
       H  6.70421e+00 -3.49275e+00 -6.84124e+00
       H -7.24361e+00 -4.07230e+00 -7.03171e+00
       O  8.22891e+00 -9.56916e+00 -7.63953e+00
       H  8.26171e+00 -9.40566e+00 -9.53901e+00
       H  8.03709e+00 -7.77319e+00 -6.97235e+00
       O -4.47760e+00 -2.11803e+00 -7.68984e+00
       H -4.19200e+00 -2.14381e+00 -9.37682e+00
       H -5.02102e+00 -5.28973e-01 -6.91826e+00
       O -8.25887e+00 -9.88749e+00  6.45773e-01
       H  7.43189e+00 -1.09319e+01  1.32198e-01
       H -6.88049e+00 -1.10317e+01  2.13451e-01
       O -3.89253e+00 -2.59375e+00  7.67370e-01
       H -5.24049e+00 -3.69745e+00  2.52397e-01
       H -2.80644e+00 -3.84888e+00  3.15689e-01
       O -3.90375e+00 -1.25258e+01  1.31297e+01
       H -3.91078e+00 -1.46446e+01  1.36771e+01
       H -4.39550e+00 -1.26073e+01  1.15305e+01
       O -8.21659e+00 -5.15853e+00  1.30952e+01
       H -7.98713e+00 -7.13084e+00  1.33958e+01
       H -8.46841e+00 -4.85565e+00  1.12755e+01
       O -4.51025e+00 -1.21468e+01  7.52682e+00
       H -6.03211e+00 -1.11449e+01  7.13317e+00
       H -3.22832e+00 -1.07422e+01  7.16925e+00
       O  8.18947e+00 -4.81177e+00  7.56367e+00
       H  6.73803e+00 -4.06577e+00  6.92313e+00
       H -7.29979e+00 -3.65516e+00  7.20925e+00
       O  8.21935e+00 -9.54232e+00  6.18560e+00
       H  8.48987e+00 -8.90916e+00  4.29284e+00
       H  8.30974e+00 -7.88997e+00  6.87216e+00
       O -4.53621e+00 -2.10100e+00  6.09144e+00
       H -4.21811e+00 -2.34539e+00  4.10612e+00
       H -4.51914e+00 -3.20720e-01  6.70998e+00
       O -8.26390e+00  4.69576e+00 -1.33195e+01
       H  7.35201e+00  3.82606e+00 -1.37008e+01
       H -6.60431e+00  3.63358e+00 -1.36782e+01
       O -3.94426e+00  1.21016e+01 -1.32102e+01
       H -5.50591e+00  1.13449e+01 -1.34806e+01
       H -2.43725e+00  1.12569e+01 -1.36722e+01
       O -4.02890e+00  2.15715e+00 -8.95401e-01
       H -4.06253e+00  4.14510e-01 -2.61220e-01
       H -4.00167e+00  2.33581e+00 -2.64802e+00
       O -8.22459e+00  9.49498e+00 -7.42405e-01
       H -8.09462e+00  7.47440e+00 -2.04446e-01
       H -8.08001e+00  9.67365e+00 -2.68181e+00
       O -4.53967e+00  2.51373e+00 -6.21133e+00
       H -6.07231e+00  3.50014e+00 -6.46999e+00
       H -3.10964e+00  3.93691e+00 -6.35815e+00
       O  8.18261e+00  9.93585e+00 -6.22399e+00
       H  6.66935e+00  1.09742e+01 -6.45434e+00
       H -7.27052e+00  1.10728e+01 -6.44372e+00
       O  8.12728e+00  5.19302e+00 -7.66359e+00
       H  8.52541e+00  5.25405e+00 -9.41625e+00
       H  8.20433e+00  7.35914e+00 -7.20002e+00
       O -4.59406e+00  1.25302e+01 -7.70861e+00
       H -4.58586e+00  1.27431e+01 -9.45706e+00
       H -4.47514e+00  1.47991e+01 -7.24917e+00
       O -8.23356e+00  4.69280e+00  6.02222e-01
       H  7.46210e+00  3.79845e+00  6.77220e-02
       H -6.74823e+00  3.76735e+00  5.83410e-01
       O -3.99236e+00  1.22183e+01  5.74460e-01
       H -5.58755e+00  1.09620e+01  1.64295e-01
       H -2.32377e+00  1.12578e+01  3.66691e-01
       O -3.92282e+00  2.20445e+00  1.30881e+01
       H -3.93337e+00  5.73197e-01  1.34211e+01
       H -3.96814e+00  2.21239e+00  1.10845e+01
       O -8.22755e+00  9.42621e+00  1.30843e+01
       H -8.35395e+00  7.65139e+00  1.33118e+01
       H -8.54747e+00  9.54109e+00  1.13891e+01
       O -4.49574e+00  2.52965e+00  7.53411e+00
       H -6.19530e+00  3.65439e+00  7.30324e+00
       H -3.14693e+00  3.40875e+00  6.50443e+00
       O  8.10889e+00  1.00792e+01  7.62637e+00
       H  6.86077e+00  1.09907e+01  6.91130e+00
       H -7.33827e+00  1.08948e+01  7.35394e+00
       O  8.26906e+00  5.17505e+00  6.17511e+00
       H  8.47944e+00  5.36555e+00  4.35707e+00
       H  8.10978e+00  6.87022e+00  6.84431e+00
       O -4.51508e+00  1.25742e+01  6.07360e+00
       H -4.37680e+00  1.27938e+01  4.23714e+00
       H -4.20731e+00  1.42755e+01  6.71746e+00
       O  3.10775e-01 -9.94729e+00 -1.32050e+01
       H -1.32683e+00 -1.10972e+01 -1.37275e+01
       H  1.85406e+00 -1.09681e+01 -1.31159e+01
       O  4.61668e+00 -2.63976e+00 -1.31308e+01
       H  3.06720e+00 -4.00775e+00 -1.38548e+01
       H  5.78433e+00 -3.81624e+00 -1.37615e+01
       O  4.52203e+00 -1.25715e+01 -7.74638e-01
       H  4.78513e+00 -1.43232e+01 -2.55214e-01
       H  4.31303e+00 -1.24311e+01 -2.71676e+00
       O  2.87272e-01 -5.16199e+00 -8.07926e-01
       H  2.65589e-01 -7.42008e+00 -4.25836e-01
       H  3.04829e-01 -5.13084e+00 -2.69929e+00
       O  3.97634e+00 -1.22272e+01 -6.15900e+00
       H  2.53618e+00 -1.11344e+01 -6.63194e+00
       H  5.66821e+00 -1.10830e+01 -6.87601e+00
       O -2.96524e-01 -4.76051e+00 -6.29962e+00
       H -1.87222e+00 -3.92436e+00 -6.42252e+00
       H  1.02490e+00 -3.63923e+00 -6.90492e+00
       O -3.12309e-01 -9.57547e+00 -7.63725e+00
       H -3.16383e-01 -9.37983e+00 -9.57508e+00
       H -2.97624e-01 -7.74355e+00 -7.24834e+00
       O  4.02673e+00 -2.20247e+00 -7.76445e+00
       H  4.26634e+00 -2.11345e+00 -9.64317e+00
       H  4.05375e+00 -3.21065e-01 -6.94041e+00
       O  2.04295e-01 -9.88438e+00  6.17923e-01
       H -9.14765e-01 -1.13311e+01 -9.06887e-02
       H  1.70175e+00 -1.11180e+01  3.76968e-01
       O  4.50163e+00 -2.61405e+00  5.73729e-01
       H  3.12773e+00 -3.74167e+00  4.29595e-01
       H  6.36448e+00 -3.42852e+00  2.68049e-01
       O  4.55713e+00 -1.25109e+01  1.30694e+01
       H  4.70289e+00 -1.45346e+01  1.34398e+01
       H  4.38650e+00 -1.26515e+01  1.12968e+01
       O  1.78369e-01 -5.19397e+00  1.30805e+01
       H  2.76109e-01 -7.14872e+00  1.37567e+01
       H  4.13514e-01 -5.31815e+00  1.11559e+01
       O  3.81098e+00 -1.21288e+01  7.62212e+00
       H  2.22840e+00 -1.11321e+01  7.27470e+00
       H  5.59951e+00 -1.13718e+01  6.85649e+00
       O -2.20520e-01 -4.81878e+00  7.63054e+00
       H -1.79715e+00 -3.86773e+00  7.39497e+00
       H  1.27704e+00 -3.83245e+00  7.18917e+00
       O -3.52079e-01 -9.59251e+00  6.17311e+00
       H -3.70153e-01 -9.53037e+00  4.34495e+00
       H -2.40449e-01 -7.74457e+00  6.75004e+00
       O  3.98407e+00 -2.15714e+00  6.19659e+00
       H  4.38917e+00 -2.27295e+00  4.37725e+00
       H  3.82222e+00 -1.74685e-01  6.52400e+00
       O  2.79786e-01  4.85281e+00 -1.30609e+01
       H -1.10808e+00  3.92683e+00 -1.39379e+01
       H  1.87526e+00  3.71128e+00 -1.38447e+01
       O  4.50221e+00  1.21603e+01 -1.32060e+01
       H  3.03569e+00  1.08239e+01 -1.34661e+01
       H  6.25346e+00  1.09640e+01 -1.33429e+01
       O  4.53690e+00  2.18025e+00 -8.25846e-01
       H  4.77052e+00  3.07172e-01 -1.44723e-01
       H  4.14628e+00  2.27448e+00 -2.58056e+00
       O  2.40678e-01  9.48332e+00 -6.60363e-01
       H  4.08576e-01  7.83561e+00 -6.29661e-02
       H  8.21471e-02  9.17836e+00 -2.63576e+00
       O  3.97237e+00  2.56898e+00 -6.19784e+00
       H  2.56694e+00  3.41661e+00 -6.70353e+00
       H  5.64438e+00  3.46274e+00 -6.55438e+00
       O -2.79863e-01  9.87868e+00 -6.33745e+00
       H -1.97907e+00  1.07537e+01 -6.72408e+00
       H  1.21867e+00  1.10923e+01 -6.86475e+00
       O -2.77802e-01  5.13262e+00 -7.64046e+00
       H  1.46128e-01  4.96684e+00 -9.72110e+00
       H -1.77612e-01  7.02972e+00 -7.40180e+00
       O  3.93661e+00  1.25943e+01 -7.80567e+00
       H  4.82817e+00  1.24169e+01 -9.56170e+00
       H  3.84703e+00  1.42327e+01 -6.83880e+00
       O  2.35230e-01  4.74033e+00  7.10159e-01
       H -7.90292e-01  3.61882e+00  8.76723e-02
       H  1.59145e+00  3.64939e+00  6.55691e-01
       O  4.47987e+00  1.21776e+01  7.22710e-01
       H  2.82930e+00  1.09664e+01  2.65262e-01
       H  5.76668e+00  1.10044e+01  2.58779e-01
       O  4.53129e+00  2.20412e+00  1.30101e+01
       H  4.68089e+00 -1.17311e-01  1.34404e+01
       H  4.33368e+00  2.16647e+00  1.11915e+01
       O  3.02261e-01  9.61547e+00  1.30597e+01
       H  3.71679e-01  7.51270e+00  1.38191e+01
       H  7.36156e-02  9.28352e+00  1.12922e+01
       O  3.95993e+00  2.50962e+00  7.62628e+00
       H  2.35145e+00  3.31112e+00  7.36098e+00
       H  5.42490e+00  3.63564e+00  7.29506e+00
       O -3.79396e-01  9.94850e+00  7.59325e+00
       H -1.77591e+00  1.11581e+01  7.41295e+00
       H  1.11924e+00  1.10165e+01  7.39136e+00
       O -2.30766e-01  5.24349e+00  6.10788e+00
       H -4.82331e-03  5.02541e+00  4.34139e+00
       H -3.30015e-01  7.03480e+00  6.67054e+00
       O  3.94301e+00  1.25157e+01  6.11270e+00
       H  3.91479e+00  1.26348e+01  4.38757e+00
       H  4.14113e+00  1.43570e+01  6.89587e+00
192
# CELL(abcABC):   16.99620    29.43815    27.67315    90.00000    90.00000    90.00000  Step:          30  Bead:      19 positions{atomic_unit}  cell{atomic_unit}
       O -8.22586e+00 -1.00121e+01 -1.30770e+01
       H  7.03466e+00 -1.08669e+01 -1.34080e+01
       H -6.51608e+00 -1.10707e+01 -1.37579e+01
       O -3.93383e+00 -2.47344e+00 -1.31196e+01
       H -5.26896e+00 -3.69300e+00 -1.34613e+01
       H -2.52805e+00 -3.39292e+00 -1.36674e+01
       O -3.98517e+00 -1.24840e+01 -8.90545e-01
       H -4.21462e+00 -1.43840e+01 -1.69063e-01
       H -4.35086e+00 -1.24700e+01 -2.77790e+00
       O -8.20993e+00 -5.15686e+00 -7.27611e-01
       H -8.09180e+00 -7.07800e+00 -2.34606e-01
       H -8.67726e+00 -5.01318e+00 -2.38921e+00
       O -4.54499e+00 -1.22112e+01 -6.24339e+00
       H -5.99246e+00 -1.11314e+01 -7.04527e+00
       H -2.56609e+00 -1.10308e+01 -6.85210e+00
       O  8.22716e+00 -4.74170e+00 -6.28995e+00
       H  6.64721e+00 -3.63811e+00 -6.48353e+00
       H -7.29678e+00 -3.72372e+00 -7.03592e+00
       O  8.23146e+00 -9.55048e+00 -7.62756e+00
       H  8.46903e+00 -9.51660e+00 -9.44574e+00
       H  8.22438e+00 -7.58096e+00 -6.94231e+00
       O -4.51308e+00 -2.05536e+00 -7.67288e+00
       H -3.98332e+00 -2.04568e+00 -9.48933e+00
       H -5.01222e+00 -6.45738e-01 -7.06433e+00
       O -8.21361e+00 -9.85879e+00  6.20930e-01
       H  7.27125e+00 -1.08792e+01  9.11044e-02
       H -6.72249e+00 -1.08933e+01  4.18081e-01
       O -3.83057e+00 -2.60130e+00  8.53543e-01
       H -5.51550e+00 -3.56588e+00  3.68745e-01
       H -2.70020e+00 -3.84022e+00  3.18273e-01
       O -3.96741e+00 -1.25149e+01  1.31328e+01
       H -4.00882e+00 -1.46223e+01  1.37829e+01
       H -4.12883e+00 -1.26613e+01  1.13835e+01
       O -8.15238e+00 -5.20110e+00  1.30853e+01
       H -7.91027e+00 -6.95085e+00  1.35574e+01