192
# CELL(abcABC):   16.99620    29.43815    27.67315    90.00000    90.00000    90.00000  Step:           0  Bead:       0 velocities{atomic_unit}  cell{atomic_unit}
       O  4.73006e-04  1.01742e-03  6.99902e-04
       H  4.04197e-03  5.49606e-03  2.99968e-03
       H  8.26383e-03 -1.99603e-04  5.05905e-03
       O  9.91967e-04  3.13493e-04 -3.23935e-04
       H -2.34202e-03  4.04330e-03 -2.62412e-03
       H  2.00390e-03  4.35541e-03 -8.72118e-03
       O -6.98094e-05  1.23350e-03 -1.15284e-03
       H -9.79107e-04  1.00956e-03 -8.49493e-03
       H  8.07820e-04  7.73368e-04 -2.69261e-03
       O -1.34254e-04  1.40973e-03  5.61676e-04
       H  6.87335e-03  7.21171e-03 -5.04244e-04
       H -4.93026e-04  2.20855e-03  9.54042e-03
       O  3.84441e-04 -3.62771e-04  2.66827e-04
       H -7.17042e-04  4.20947e-04 -1.53295e-03
       H  3.65232e-03 -3.16599e-05 -2.75728e-03
       O -1.09035e-03  4.27520e-05 -8.48445e-04
       H -4.43813e-04  2.53294e-03  5.36149e-03
       H  9.63522e-04  9.30544e-04 -2.13150e-03
       O  1.27148e-03  6.47931e-04 -1.19721e-03
       H -2.22672e-03 -3.96280e-03  1.60923e-03
       H  6.74898e-03  1.94010e-03  1.94261e-03
       O  4.66756e-05  2.24591e-04  7.78602e-05
       H -3.53417e-03  5.32439e-03  5.77888e-03
       H -5.40915e-03  3.63832e-04  4.82587e-03
       O -5.83121e-04 -1.33037e-03 -1.61313e-03
       H  1.05430e-03  3.75056e-03 -1.16756e-03
       H -1.80173e-03 -2.89782e-03 -1.76889e-03
       O -5.63465e-04 -2.02901e-04  4.10763e-04
       H -7.47747e-04  2.00944e-03  5.57920e-03
       H -4.16466e-03  5.51427e-03  1.22853e-03
       O  1.39786e-03 -2.34867e-04 -6.10205e-05
       H -3.43897e-04  1.61445e-03  1.74153e-03
       H -1.60820e-03 -4.73834e-04 -2.44208e-05
       O -1.10800e-03  1.44337e-05  5.20199e-04
       H  4.75738e-03 -7.58217e-04 -3.25878e-03
       H  4.26941e-03 -7.35427e-04 -2.92822e-03
       O  1.43137e-04  2.71481e-04 -7.71103e-04
       H -2.33263e-03 -7.99565e-03 -1.95235e-03
       H -4.91942e-03 -5.36720e-03  1.00011e-03
       O  1.94512e-03  9.10476e-04  3.32208e-04
       H  4.54252e-03  5.14430e-04  1.33457e-04
       H  1.39772e-03 -1.04584e-02 -5.87091e-03
       O  2.12759e-04  2.46084e-03 -9.84859e-04
       H -4.18970e-03  1.37833e-03 -3.51900e-03
       H  3.81807e-03  6.43793e-03 -2.51965e-03
       O  1.82413e-03 -2.24588e-04  9.21137e-04
       H -2.03393e-03 -7.62746e-03  1.41867e-04
       H -1.24098e-03 -9.43632e-03  2.80387e-03
       O -1.45893e-04 -7.37466e-04 -5.38056e-04
       H -6.21158e-03 -1.98214e-03 -4.47456e-03
       H -9.28920e-04  2.91448e-03 -3.25171e-03
       O -7.87553e-04  4.13521e-04  4.77600e-04
       H  2.50058e-03 -4.94013e-04  4.09419e-03
       H  6.30850e-03  1.98462e-03 -1.90448e-04
       O -9.38287e-04 -9.43843e-04  2.13183e-03
       H  2.90320e-03  2.58442e-03 -1.89578e-03
       H -2.71157e-03 -3.74232e-03 -6.29951e-04
       O -1.27440e-03 -1.04819e-03 -1.67976e-04
       H -5.05880e-03 -1.13294e-03  8.76135e-04
       H  4.82668e-04 -2.41048e-04 -9.56004e-05
       O  1.88620e-04 -2.70238e-04 -2.49785e-04
       H  1.86957e-04  1.62024e-03 -1.19849e-03
       H -4.86322e-03 -5.32328e-03  4.35767e-04
       O -3.91408e-04  2.51675e-04 -2.04454e-04
       H  2.59356e-03  9.73251e-04  1.44161e-03
       H -8.25375e-04  5.57417e-03 -1.45049e-03
       O  6.25594e-04 -1.37793e-04  1.61904e-03
       H  6.75380e-04 -2.99324e-03  5.11680e-03
       H  7.53601e-03  1.33043e-02 -6.84472e-03
       O -7.56794e-04 -1.27757e-03 -3.56038e-04
       H -4.59900e-03 -1.08114e-03  3.03711e-03
       H  1.44648e-03 -3.48489e-04 -6.76718e-03
       O  3.86970e-04 -2.09435e-03 -2.58758e-04
       H  1.79241e-03  6.45094e-03 -2.25813e-03
       H -1.27783e-02 -1.80709e-04 -2.31167e-03
       O  1.61585e-04  1.03270e-03  9.42510e-04
       H  7.70037e-03  6.11067e-03 -4.03243e-03
       H  1.78301e-03  2.53441e-03  5.05822e-03
       O -1.00460e-03 -4.92898e-04  5.51637e-04
       H  4.35347e-03 -3.13333e-03 -2.02352e-03
       H -2.36890e-03  1.76331e-03  7.34777e-03
       O -1.29851e-04 -1.66521e-03  5.03080e-04
       H -2.81719e-03 -1.62060e-03 -2.71210e-03
       H -5.80420e-04  3.09956e-03 -7.87381e-04
       O  1.42239e-03  6.57091e-04  1.87515e-03
       H  3.13847e-03 -3.30226e-03  5.62729e-03
       H  8.48849e-03 -1.88519e-03 -8.04368e-03
       O  1.50388e-03  9.73464e-04 -8.70574e-04
       H -2.54036e-03  7.16004e-03  6.23335e-03
       H  4.02613e-03 -3.68034e-04  1.98520e-03
       O  2.38966e-04 -1.00404e-04  8.26479e-04
       H -7.72942e-04 -1.29060e-05  1.91829e-04
       H -1.23317e-03  7.34454e-04 -8.41996e-03
       O -6.93177e-04 -3.24990e-04 -2.00062e-03
       H  2.53595e-03 -4.75509e-03 -9.15311e-04
       H -3.48151e-03  1.47241e-03  6.61895e-04
       O -1.11366e-03  4.35265e-04 -6.18353e-04
       H -3.73756e-03  4.66542e-03 -2.78753e-03
       H -4.74482e-03  1.46576e-03  7.16121e-03
       O  6.37473e-04  6.88027e-04  1.52563e-03
       H  1.37187e-03 -9.40077e-04 -4.35350e-03
       H  1.34609e-04 -1.48600e-04  2.21386e-03
       O -5.73648e-04  1.71513e-03  3.08837e-04
       H  4.50566e-03 -3.92988e-03 -3.99583e-04
       H  3.22437e-03  6.22026e-03 -1.92227e-04
       O  1.22153e-03 -1.20250e-04 -2.58278e-03
       H  1.49168e-03  9.65142e-03  3.80351e-04
       H -5.54293e-03  2.40193e-03 -4.52362e-03
       O  8.12587e-05 -5.23844e-06 -2.40624e-05
       H  2.11801e-05  6.39625e-04 -7.91123e-05
       H  4.01568e-03  2.70367e-03 -3.41005e-03
       O -4.76426e-04 -2.18028e-03  2.62278e-04
       H -1.86949e-04 -1.15370e-03  4.88234e-03
       H  4.09625e-03 -1.95093e-03  7.89682e-04
       O -2.10611e-03 -1.07066e-03  1.80893e-03
       H -8.73849e-04 -3.41570e-03 -2.81779e-03
       H -2.18279e-03 -1.61913e-05 -6.92216e-03
       O  2.43345e-03 -1.71923e-03 -1.29320e-03
       H -1.08599e-03  7.87473e-03 -2.56396e-03
       H  5.33726e-03 -5.56748e-03  4.80615e-03
       O -2.64693e-04 -4.84216e-04 -1.35608e-03
       H  1.41726e-03  1.02952e-03 -4.97242e-03
       H  2.55555e-03  2.42993e-03  2.41571e-03
       O  3.49960e-04  1.60330e-04 -9.40437e-04
       H  3.77604e-03 -3.83519e-03  3.94274e-03
       H  4.76142e-03  2.37589e-03 -3.39125e-03
       O -4.48498e-05  5.88632e-04 -9.43193e-05
       H  1.90835e-03  1.49874e-03 -2.12647e-03
       H  3.62711e-03 -4.62279e-03  9.90245e-05
       O  9.91987e-04 -6.45039e-04  1.15742e-03
       H -7.39793e-05  5.83209e-03 -1.42200e-04
       H  6.39809e-03  1.62634e-03  3.55410e-03
       O -7.01074e-05 -7.72341e-04 -1.15717e-04
       H  8.83163e-04  1.12197e-03 -3.05219e-03
       H -8.16829e-03  2.55376e-03  5.84223e-03
       O -2.72439e-04  4.56978e-05 -1.86857e-03
       H -6.94630e-04  2.90868e-03  9.01825e-03
       H -5.50835e-03  7.65108e-03  5.18468e-03
       O  1.99404e-03  1.69122e-03 -1.69712e-03
       H -3.05309e-03 -5.17212e-03 -1.27017e-03
       H  3.21462e-03  3.11866e-03 -3.87745e-03
       O -1.77902e-06  4.75873e-04 -9.03123e-04
       H  2.14038e-03  1.91423e-03 -6.84025e-03
       H -7.38278e-04  1.91955e-03 -2.10865e-03
       O -5.65125e-04  1.40303e-05 -8.47036e-04
       H  3.53087e-03  2.20543e-03 -3.31597e-04
       H -7.15701e-03 -1.70794e-04 -7.83286e-04
       O -1.77521e-03 -6.94042e-04 -3.69582e-04
       H -6.54931e-04  1.93720e-03 -1.37983e-03
       H  4.95071e-03  2.43248e-03 -2.71447e-03
       O -8.59417e-05 -4.81486e-04 -5.02109e-04
       H  2.03649e-03 -1.58001e-03 -8.42556e-04
       H -8.57082e-03  3.24193e-03  3.48695e-03
       O -1.57560e-03 -9.76287e-05 -8.65830e-04
       H  3.74172e-03 -4.72277e-03 -1.63328e-03
       H  3.26154e-03 -7.28033e-04  8.96798e-05
       O -3.45551e-04  2.48020e-04  1.09581e-03
       H -3.91220e-04 -4.66654e-03 -4.75147e-04
       H -6.49665e-03 -2.81604e-03  1.04185e-02
       O -9.85092e-04 -1.16981e-03  5.52737e-04
       H -5.34220e-04 -3.20413e-03 -6.74884e-03
       H  8.52242e-03 -1.87504e-03 -7.17928e-04
       O  9.83492e-04 -2.73332e-04  4.95859e-04
       H  4.14889e-03 -1.74170e-03  4.47730e-03
       H  1.54966e-03 -3.75018e-03  3.17467e-03
       O -1.82450e-04  3.35205e-04  1.02363e-03
       H  1.67785e-03  1.56975e-03  3.47136e-03
       H -1.23384e-03 -6.79217e-03 -1.48636e-03
       O -9.24771e-04  5.25184e-04 -5.44194e-04
       H  3.04787e-03 -9.50633e-03 -6.40721e-03
       H  4.83872e-03 -4.44505e-03 -1.56193e-03
       O -1.14891e-03 -1.29226e-03 -6.02560e-04
       H  4.32240e-03 -3.86676e-05  5.44858e-03
       H  3.51136e-03  2.35835e-03 -6.79259e-04
       O  3.99583e-05 -9.00129e-04  1.40370e-04
       H -9.31959e-04  2.17086e-03  4.97249e-03
       H -2.31483e-03 -4.69272e-04 -7.45049e-03
       O -6.72185e-04 -6.73363e-04 -1.24562e-05
       H -2.22638e-03 -3.31996e-04 -2.52854e-03
       H  5.02565e-04 -2.53777e-03 -2.40540e-03
       O -1.75287e-03  5.05007e-04  5.66652e-04
       H  5.28272e-04 -2.54069e-04 -4.74675e-03
       H -3.15871e-03 -1.70471e-03  3.77188e-03
       O  3.62702e-05 -1.95095e-04  6.87995e-04
       H -2.51998e-03  1.02689e-03  6.54046e-03
       H -3.35440e-03 -4.55249e-03 -2.69150e-03
       O -2.16266e-04  4.02599e-04 -4.40899e-04
       H  1.35556e-03 -2.65174e-03  3.84229e-03
       H  2.17138e-03  3.02420e-03 -6.52261e-03
       O  2.91681e-04  6.29304e-04 -4.68333e-04
       H -7.19913e-03  5.97638e-03 -6.07873e-03
       H  1.03284e-03 -9.26445e-04 -2.57083e-03
192
# CELL(abcABC):   16.99620    29.43815    27.67315    90.00000    90.00000    90.00000  Step:          10  Bead:       0 velocities{atomic_unit}  cell{atomic_unit}
       O  6.90883e-06  8.89156e-04  9.44886e-04
       H  2.65427e-03  1.62296e-03 -1.74892e-03
       H -6.64307e-05 -8.33989e-03 -1.42565e-04
       O  2.66550e-03 -9.73402e-04 -1.51728e-03
       H -4.19671e-03 -5.69187e-04 -9.62061e-06
       H  1.80933e-03 -5.29581e-03 -1.28227e-03
       O  2.85484e-04 -7.69569e-05 -1.40972e-03
       H -1.51595e-03  1.17829e-03 -8.51509e-03
       H -1.07175e-03  8.75560e-04 -5.33167e-03
       O  6.06425e-04  4.41376e-04  1.10148e-03
       H  3.31043e-03 -2.19226e-03 -1.57557e-03
       H -1.61539e-03  2.00768e-03  1.49177e-03
       O  4.79422e-04 -2.14406e-04  4.55670e-04
       H -2.77734e-04  2.64189e-04 -2.96813e-03
       H -3.01720e-03  3.77652e-03  5.70870e-03
       O -1.03157e-03  1.08532e-04 -2.23087e-04
       H  1.88150e-04 -2.55167e-03  3.73122e-03
       H -3.10525e-03 -3.07232e-04 -1.68063e-03
       O  1.63779e-05  8.43865e-04  1.20464e-03
       H  4.41818e-04  3.94839e-03 -3.00788e-03
       H  4.19273e-03 -3.55193e-03 -9.18428e-03
       O  6.02314e-04 -4.53785e-05  4.16063e-04
       H -5.10498e-03  4.99579e-03  5.89154e-03
       H  1.50803e-03  1.01046e-03  8.40940e-04
       O -2.97080e-04 -2.83515e-04 -1.16084e-03
       H  1.12083e-03 -2.48273e-03 -2.11552e-03
       H -9.74931e-04  1.14337e-03 -3.00782e-03
       O -5.84154e-04 -2.01543e-03  1.40229e-03
       H  6.46431e-03  1.10441e-03 -6.17353e-03
       H -6.63880e-03 -5.06594e-03  2.44481e-03
       O -9.47841e-04  4.96204e-04  1.35238e-03
       H -2.27470e-03 -4.36319e-03  1.16586e-03
       H  4.39776e-03  3.62344e-04 -5.02224e-03
       O -5.22552e-04  4.24477e-04 -3.85744e-04
       H -1.99269e-03  4.88368e-03 -1.94735e-03
       H  2.67434e-03 -3.54553e-03  3.96050e-04
       O -7.09167e-04 -1.00325e-03 -7.73584e-04
       H  3.57811e-04 -1.46053e-03  2.83087e-03
       H  2.73215e-03  2.60059e-03  1.82620e-03
       O  4.25616e-04  6.42002e-04 -4.19336e-04
       H  6.19859e-03  4.54743e-03  2.48416e-04
       H  3.97140e-03  4.63370e-03 -3.02838e-03
       O  1.62524e-04  1.21757e-03 -4.90478e-04
       H -3.20568e-03  1.88803e-03  2.15419e-03
       H -8.42282e-04  4.97494e-03  1.18504e-03
       O  1.90891e-04  2.87037e-05  3.27346e-04
       H  3.84162e-04 -1.26623e-03 -3.12164e-03
       H  7.38246e-03 -2.14742e-03 -3.97430e-03
       O -5.16900e-04  9.12235e-04 -2.50844e-04
       H -2.86836e-04 -1.14789e-03  3.86267e-03
       H -2.06931e-03 -7.73141e-03  2.36143e-03
       O -3.98718e-04 -5.82775e-04  8.97581e-04
       H  1.84774e-03 -1.21092e-03 -1.58479e-05
       H -6.86583e-03 -7.73396e-04  3.37591e-03
       O  3.11847e-04  1.86024e-04  3.73262e-05
       H -2.28803e-03  6.28008e-03 -1.91831e-03
       H -7.45996e-04 -1.37197e-03  5.27047e-03
       O  6.26824e-04  1.14211e-03  1.32250e-03
       H -1.26749e-03 -2.11642e-03 -3.26657e-04
       H -1.13408e-03  7.40311e-03 -3.87078e-03
       O -1.45040e-04 -1.30675e-03  1.03306e-03
       H -3.93599e-03 -5.44569e-04 -3.89808e-03
       H  4.35076e-04 -4.24029e-03 -1.47260e-03
       O -5.56672e-04 -1.17542e-03  1.25638e-03
       H -8.69668e-04  1.75659e-03 -3.11469e-04
       H  1.79773e-03 -3.04289e-03  3.56944e-03
       O -3.93401e-05  2.10721e-04 -2.92386e-05
       H  7.02220e-04  2.26216e-03 -3.79968e-03
       H -2.76820e-04  1.08265e-03 -3.63223e-03
       O  3.29234e-04  1.07810e-03 -2.52686e-04
       H  4.19964e-03 -8.44697e-04  2.56828e-03
       H  1.00889e-02  2.23058e-03 -2.84142e-03
       O  8.14479e-04 -2.91606e-04 -4.77425e-04
       H -4.62198e-04 -2.07630e-03 -7.47633e-03
       H -1.70706e-03 -2.06808e-03 -8.27187e-03
       O -2.04178e-04 -8.53330e-04 -2.67110e-03
       H  2.25490e-03  2.30611e-03 -7.69223e-04
       H  2.01808e-03  4.37206e-03 -9.93242e-04
       O -7.16937e-04  1.99051e-04 -1.34411e-03
       H  4.84202e-04 -1.92552e-03 -5.30480e-03
       H  2.44458e-03  2.77729e-03 -6.59625e-03
       O -1.85600e-03 -4.35000e-04 -1.08796e-03
       H -3.63405e-03 -4.38826e-03 -6.32052e-03
       H -6.89409e-05  3.35587e-04  6.03411e-04
       O -1.21226e-03 -6.17157e-04  4.80660e-04
       H -3.58763e-03 -2.66551e-03  1.98240e-03
       H  4.74426e-03 -1.21431e-03  3.13592e-03
       O  7.93191e-04 -2.23721e-04  2.01792e-04
       H  2.37286e-03  8.75818e-04  2.25807e-03
       H -1.32072e-03  1.12796e-03 -5.64254e-04
       O -1.34147e-03 -6.29331e-04 -5.37293e-04
       H  2.00626e-03 -2.61913e-03  1.29091e-03
       H  1.72805e-03 -4.65357e-04 -3.17844e-03
       O -1.72565e-05 -1.06223e-04 -6.35847e-04
       H -7.03838e-03 -5.35571e-05 -4.37117e-04
       H  3.00161e-03 -2.55443e-04 -6.28542e-04
       O -5.21739e-04  1.55693e-03  8.25316e-04
       H -1.06439e-02 -5.04639e-04 -5.72666e-03
       H  4.85011e-03  9.07232e-04  2.40289e-03
       O -4.26703e-04  7.45223e-04 -3.30881e-04
       H  3.64850e-03 -5.05306e-03 -6.76883e-04
       H  4.31736e-04 -4.24364e-03 -2.06229e-03
       O  5.92432e-04  8.99504e-04  1.73663e-03
       H -6.30355e-03  2.56243e-03 -3.08228e-03
       H -5.34732e-03  1.27633e-03  2.27122e-03
       O -8.46323e-04  2.21171e-03  1.21824e-03
       H -4.49936e-03 -3.09352e-03  6.86992e-03
       H -3.01110e-03  2.36588e-04 -1.30214e-03
       O -9.89015e-04  1.65266e-03  4.41920e-04
       H -1.64731e-03  8.93144e-03 -2.05095e-03
       H -3.79670e-03 -3.91129e-03  4.38381e-03
       O -1.27146e-03 -4.68100e-04  2.09410e-04
       H  1.82716e-03  1.44637e-03  1.43462e-03
       H  3.78847e-03 -1.84686e-04  1.30425e-04
       O -6.77921e-04 -4.88163e-04 -1.17377e-03
       H -4.58013e-04 -5.43434e-03  2.98575e-03
       H -2.24082e-03 -5.52429e-03  5.93679e-03
       O  8.40632e-04 -1.17971e-03 -6.63046e-04
       H  1.25218e-03  4.78024e-04  3.61765e-03
       H -2.01429e-03 -1.52429e-03 -4.58808e-03
       O -7.48324e-04 -6.57604e-04 -4.44095e-05
       H -1.77837e-04  3.13992e-03 -4.82298e-03
       H -8.72133e-04 -5.89763e-03  1.40046e-04
       O -8.76551e-04  3.14654e-04  1.30985e-03
       H -3.84646e-03 -1.97779e-03 -1.36354e-03
       H -5.16609e-04 -3.07714e-03  1.55928e-03
       O  1.15385e-04 -6.87396e-04 -3.47127e-05
       H -2.15479e-03  3.21627e-04  3.58630e-04
       H  1.24748e-03 -4.33416e-03 -2.46055e-03
       O  1.22365e-03  1.85853e-04 -8.10994e-04
       H  1.24113e-03 -3.09203e-03 -4.29662e-03
       H -4.50727e-03  1.99702e-03  3.99183e-03
       O  4.25617e-04 -7.05365e-05 -9.40527e-04
       H  8.61779e-03  8.75649e-03  1.90946e-04
       H -1.34276e-03 -1.04309e-03  1.35123e-03
       O  1.41092e-04 -1.48409e-03  1.73992e-04
       H -4.32984e-03  3.42866e-03  2.26130e-03
       H  7.05338e-03  7.48278e-03 -6.75198e-03
       O -2.84468e-03  1.44045e-03  8.45309e-04
       H -1.92965e-03 -3.65483e-04 -5.07260e-03
       H  1.87231e-03 -1.38275e-03  3.67394e-03
       O  2.13652e-04 -1.39574e-03 -6.96825e-04
       H -5.84713e-03  5.69479e-03  3.22416e-04
       H  1.05418e-03 -4.02120e-03  2.29219e-03
       O  7.73462e-04  5.89197e-04  3.73628e-04
       H  2.21782e-03  1.55202e-03  2.90920e-03
       H -2.04673e-03 -4.01557e-03  4.14692e-03
       O  6.02925e-05  8.91606e-04  2.36276e-04
       H  2.77367e-03 -7.31925e-04 -2.24733e-03
       H  2.23487e-03  6.86160e-03 -5.12310e-03
       O  1.36347e-04  4.09714e-04 -1.99981e-03
       H -2.88707e-03  1.82524e-03 -2.93573e-03
       H -3.36388e-03  1.31530e-03  4.50002e-03
       O -6.29827e-04 -2.00202e-04  2.26208e-03
       H -1.54600e-05 -1.86045e-03 -7.09919e-03
       H  2.62835e-03 -1.51940e-03  8.16686e-04
       O  2.74862e-04  6.07853e-05  4.93112e-04
       H  7.77569e-04 -4.15038e-03 -1.07989e-03
       H  3.28829e-03  2.38030e-03 -3.97264e-03
       O  1.83954e-03  7.31107e-06  2.32711e-05
       H -1.15821e-03  5.01320e-03 -5.08140e-03
       H -1.57127e-03 -5.61475e-03 -5.37575e-03
       O  5.48468e-05  2.58940e-05  5.48951e-04
       H  1.11194e-03  1.19267e-03  3.00182e-03
       H -3.37094e-03  2.11896e-03  3.60758e-03
       O -2.77473e-05 -3.60251e-04 -4.03304e-04
       H -5.86097e-03  1.95564e-04  4.50693e-03
       H -2.96589e-04 -1.68487e-03 -7.58421e-03
       O  7.69878e-04 -2.76137e-05 -9.07797e-04
       H -4.30018e-03 -1.20710e-03 -3.15269e-04
       H  4.00027e-03 -4.15502e-03 -1.71503e-03
       O  8.34074e-04  7.35384e-04 -4.42113e-04
       H -7.67969e-03 -3.17408e-03  2.43090e-03
       H  4.61437e-03  2.20013e-03 -9.50640e-04
       O -7.67976e-04  1.02810e-03 -6.71275e-04
       H -2.25550e-03  1.20314e-03  2.46711e-03
       H  3.34099e-03 -8.22873e-03  6.80321e-03
       O  4.91961e-04  2.17163e-04 -1.42171e-03
       H  2.57744e-03 -3.92526e-03  8.33505e-03
       H -3.25157e-03 -1.27351e-03  5.97556e-03
       O  5.02170e-04  7.26583e-04  9.59622e-04
       H  6.76489e-04  3.18258e-03  2.91291e-03
       H  3.02944e-03 -2.28838e-03 -3.03640e-03
       O  1.37465e-03  2.08025e-03  4.57024e-04
       H -3.99806e-03 -4.28587e-04 -4.50850e-03
       H -3.55995e-03 -5.08932e-03 -3.87388e-03
       O -1.08753e-03  6.42226e-04  7.18383e-04
       H -3.94546e-03 -7.61710e-04  5.84097e-04
       H  4.48734e-03 -5.97485e-04 -2.57076e-03
       O -1.22454e-04  1.78469e-03 -2.34997e-04
       H  3.72227e-03 -3.20186e-04  4.29902e-03
       H -3.17445e-03  1.13991e-03 -6.36264e-03
192
# CELL(abcABC):   16.99620    29.43815    27.67315    90.00000    90.00000    90.00000  Step:          20  Bead:       0 velocities{atomic_unit}  cell{atomic_unit}
       O  2.05544e-04 -3.21055e-04  1.23156e-03
       H  2.80092e-03  4.13661e-03 -1.52622e-03
       H -3.77498e-03 -1.52362e-03 -3.26543e-03
       O -4.94774e-04 -9.37470e-04  9.32524e-04
       H  2.41506e-03 -9.90528e-04 -1.64358e-03
       H -5.98519e-03 -3.70903e-03  6.23993e-03
       O  8.73406e-04 -4.50299e-04 -6.75713e-04
       H -2.72299e-03 -7.84888e-03 -2.50030e-03
       H  4.86338e-03  2.79522e-03  1.05244e-03
       O  2.48986e-04  1.06254e-03 -1.50341e-05
       H  7.87389e-05 -4.08129e-03 -3.28665e-03
       H  3.65848e-03  4.38786e-04 -6.30480e-04
       O -4.49216e-04 -9.17218e-04  2.49475e-04
       H  9.16814e-06  2.55932e-03  1.22127e-03
       H  5.12413e-03  5.87754e-03 -6.10520e-03
       O -5.27967e-04 -1.59999e-03  9.62242e-05
       H  3.01916e-03 -1.00311e-06  3.40989e-03
       H  5.11582e-04 -5.56054e-03 -5.74423e-03
       O -1.28866e-03  1.94188e-03  5.10547e-04
       H -2.83903e-03  5.97494e-04 -4.19270e-03
       H  2.04703e-03  1.86168e-03  2.58205e-03
       O -3.45911e-04  1.06283e-03 -4.85092e-04
       H  5.50319e-03  1.73165e-03 -3.58991e-03
       H  2.81713e-03  4.16212e-03  1.87890e-03
       O  3.41987e-04 -1.40057e-07  1.66368e-03
       H -3.45625e-03 -8.25657e-05 -6.43952e-03
       H  2.37941e-03  5.52094e-03  3.40091e-03
       O  7.62470e-05  6.35985e-04 -2.31311e-04
       H -4.75005e-03 -5.61989e-03 -4.93316e-03
       H  3.92351e-03  2.80072e-03  1.86904e-03
       O  1.04867e-03  5.38320e-04 -8.71098e-04
       H  1.51224e-03  6.81592e-03  3.87506e-03
       H -4.75251e-03 -2.69505e-03  4.53136e-03
       O  4.37394e-04 -1.34868e-04 -2.88565e-04
       H  8.78463e-04  4.19404e-03  2.36258e-03
       H  7.84713e-04  3.52721e-03 -4.93885e-03
       O -2.93118e-04  2.60529e-04  1.70378e-03
       H -3.93412e-03 -4.44749e-03 -1.08959e-03
       H  4.93799e-03 -8.37729e-04  3.82258e-03
       O  1.49787e-04 -5.83511e-04 -1.10401e-03
       H -1.10769e-03 -3.81802e-03  4.28585e-03
       H  3.62519e-03 -3.25438e-03  1.95751e-03
       O  8.00435e-04  1.58455e-04  5.04871e-04
       H  7.04430e-04 -2.09839e-03  3.12242e-03
       H -9.35449e-04 -3.02540e-03  1.80178e-03
       O  6.03406e-04 -7.11655e-04  8.52882e-04
       H -5.80857e-03  7.90924e-03 -1.26588e-03
       H  6.65686e-03  2.67088e-03  4.03977e-03
       O  5.98447e-04 -6.36577e-04 -1.07639e-04
       H  2.09875e-03  2.17168e-03  5.23501e-03
       H  2.86060e-03  2.28885e-05  4.49211e-03
       O -3.01714e-04 -5.89926e-05  2.19516e-04
       H -6.32797e-03  3.23170e-04 -1.12725e-03
       H  7.31141e-04 -3.39719e-03 -2.57134e-04
       O -6.90174e-04  1.08429e-04 -1.33661e-03
       H  1.98603e-04 -3.57798e-03 -2.86404e-03
       H -8.82421e-04 -6.22787e-04 -3.84078e-03
       O  3.47058e-04 -9.48218e-04  1.19100e-03
       H  7.45715e-03 -9.56770e-04 -1.72736e-03
       H  2.72244e-03  1.28840e-03  1.12400e-03
       O -9.81165e-04  6.52551e-05 -1.39505e-03
       H  8.65664e-04  2.27574e-03 -1.93267e-05
       H -1.12821e-03 -2.08398e-03 -2.49133e-03
       O  8.38045e-04  1.54338e-04  9.35040e-04
       H -2.94620e-03 -4.78975e-03  2.67933e-04
       H -3.36024e-03  2.82790e-03 -1.46593e-03
       O -5.83654e-04  6.56118e-04  3.05201e-04
       H -1.17472e-03 -5.23904e-03  2.80523e-03
       H  2.31966e-03  4.74508e-05 -1.03168e-03
       O  5.67257e-05  1.73456e-03 -2.00739e-04
       H  2.28261e-04 -5.61158e-03  2.49276e-03
       H -1.85018e-03 -1.46649e-03  4.25622e-04
       O  1.21151e-03  2.08183e-03  7.59787e-04
       H -3.75212e-03 -4.51194e-03  6.50737e-03
       H  6.65056e-03 -5.05956e-03 -2.81974e-03
       O -8.15378e-04  2.37535e-03  1.24222e-03
       H -4.20052e-03 -3.26120e-03  1.87937e-03
       H -4.11426e-05  1.89795e-03  1.50304e-03
       O -1.71701e-04  5.19421e-04 -1.08888e-04
       H  2.32680e-03  3.37462e-03  2.85563e-03
       H  5.08160e-03  1.51066e-03 -2.47379e-03
       O  1.23889e-03 -2.52953e-04  2.22044e-04
       H  3.90358e-03  3.36641e-03  4.29447e-03
       H  3.50118e-03 -2.29453e-03 -4.71902e-04
       O -1.86901e-03  1.10194e-03  5.95087e-04
       H -1.46364e-03  1.92072e-03  2.33791e-05
       H -2.11260e-03  1.69927e-03  3.40983e-03
       O -4.31339e-04  3.94892e-04  2.34181e-04
       H  1.79464e-03 -2.97897e-03  4.30811e-03
       H -7.25710e-04 -8.00765e-04  1.27227e-03
       O  1.07726e-03 -7.70594e-04  2.11043e-03
       H  5.77395e-03  1.30557e-03 -3.25652e-03
       H  1.59331e-04 -3.20352e-03  2.45551e-03
       O -3.11611e-04  4.61147e-04  6.07855e-05
       H -2.05741e-03  2.38810e-03 -7.41372e-04
       H  4.06473e-03 -9.50083e-04  1.96308e-03
       O -4.64587e-04 -7.02372e-05  9.48462e-04
       H  2.62265e-03  1.74872e-04  2.03205e-03
       H  1.42534e-04  6.06536e-04  4.04927e-04
       O  6.97441e-04 -5.90621e-04  3.12705e-04
       H  2.62538e-03  3.02300e-03  4.83770e-03
       H  4.17318e-04 -3.21017e-03  3.42109e-03
       O -8.88711e-05 -8.68194e-04  6.96945e-04
       H  2.72278e-04 -7.78110e-04  2.24196e-03
       H -2.21611e-03  6.33629e-03  1.66177e-04
       O -5.93950e-04  3.64349e-04 -4.53559e-04
       H  4.44425e-03 -1.98236e-03 -8.95175e-04
       H -6.47737e-04 -9.66803e-04  2.95529e-03
       O -5.52307e-04 -1.42832e-03  8.38270e-04
       H -2.20006e-05  2.33234e-03  1.93848e-03
       H  2.76254e-03 -1.90888e-03  5.05398e-03
       O -1.14715e-04  1.34463e-03  3.22502e-04
       H -1.65900e-04  1.15072e-03  1.01675e-03
       H  5.89476e-03  3.90086e-03  5.26261e-03
       O  6.54627e-04  3.05051e-04 -9.90499e-04
       H  1.31472e-04 -1.18553e-03 -5.32972e-03
       H  3.33393e-03  2.49806e-03  1.55841e-03
       O -1.19236e-04  3.78530e-04  3.67011e-04
       H  1.12327e-02 -3.44007e-03 -1.37356e-04
       H  4.45991e-03  3.62192e-03 -1.74374e-03
       O -3.27320e-04 -4.35830e-04  1.08214e-03
       H  3.46087e-05 -1.75106e-03 -5.63057e-04
       H  6.29171e-03  2.22750e-03  6.88078e-03
       O -4.98196e-04 -5.93490e-04  9.96562e-05
       H  2.29634e-03 -2.82036e-04  2.02764e-03
       H -3.70047e-03  2.87966e-03 -9.10096e-04
       O  7.58080e-05 -1.93426e-04 -9.07541e-04
       H -6.13736e-03 -2.99338e-03  7.72730e-04
       H  6.31851e-04 -2.97004e-03  2.93633e-04
       O  4.50737e-05  1.53896e-03 -2.25478e-04
       H  4.98254e-03 -4.01077e-03 -9.77760e-04
       H  9.78379e-04  1.04647e-03 -1.92695e-03
       O  5.46902e-04 -3.56525e-04 -1.11526e-04
       H  2.71700e-03  1.62137e-03  2.31179e-03
       H -6.24320e-04  1.31627e-03 -2.28148e-04
       O  1.14082e-03 -8.42044e-04 -2.31167e-03
       H -8.71930e-04  5.71462e-03  9.68046e-04
       H  3.14859e-03  2.84729e-04  2.39801e-03
       O  7.57291e-04 -1.84388e-03  1.47350e-03
       H -2.08214e-03 -3.89828e-03 -1.45265e-04
       H  5.05044e-04 -2.43280e-03 -3.66695e-04
       O  2.79841e-04 -5.62865e-04 -5.48285e-04
       H  4.52455e-03  4.80547e-03  1.29702e-03
       H  7.24683e-03 -3.21774e-03  1.47732e-03
       O -5.32815e-04 -2.83246e-04  6.08552e-04
       H -2.38308e-03 -2.50944e-03 -4.84236e-04
       H  9.99317e-03  4.58855e-03 -7.36708e-04
       O  3.43783e-04  3.67116e-04  8.56187e-04
       H  5.55116e-04  2.38283e-04 -2.09585e-04
       H -5.59917e-03  5.30373e-03  2.13312e-03
       O -7.88107e-04  3.09848e-04  2.43432e-04
       H -1.57145e-03 -6.65941e-04 -1.99930e-03
       H -5.33893e-03  4.28936e-03  5.75313e-03
       O  1.14731e-03 -1.34478e-04  2.57430e-04
       H -1.77657e-03 -1.89034e-03  2.56064e-04
       H -6.08675e-03  2.49817e-03 -2.23212e-03
       O  4.48115e-04 -7.62380e-04 -8.61303e-04
       H -4.79653e-03  3.27718e-03 -1.17528e-03
       H  8.99415e-04  1.29210e-03  5.16477e-03
       O  8.61433e-04  2.02032e-04 -8.26137e-04
       H  1.01629e-03  3.95515e-03  1.18085e-03
       H -5.78790e-04 -1.24312e-03  1.55879e-03
       O  3.48730e-04 -5.50936e-04 -5.30984e-05
       H  1.47918e-03  4.33414e-03  4.15327e-03
       H  7.25802e-03  1.62867e-03 -7.65432e-03
       O  1.12205e-03  4.00859e-04  5.17970e-04
       H  5.91663e-03  5.08051e-03  2.34348e-03
       H -2.28639e-03  1.61497e-03  6.27566e-03
       O -1.17636e-03 -4.53419e-04 -7.12808e-04
       H -2.08577e-03  7.82871e-04  6.29212e-04
       H  2.85300e-04 -4.16365e-06  3.74784e-03
       O -1.85939e-04 -4.77697e-04  3.07456e-04
       H  1.26082e-03 -4.34708e-03 -3.92601e-03
       H -2.14261e-03  3.53125e-04 -2.83171e-03
       O  6.13745e-04  1.39999e-04 -1.05640e-03
       H -6.01280e-04  2.85837e-04  6.04898e-03
       H -4.19092e-03 -2.01499e-03 -4.68720e-03
       O  1.50324e-04 -1.22299e-03 -1.02341e-03
       H -5.02535e-03  3.99100e-03 -1.79391e-03
       H -5.03113e-03 -4.12911e-03 -2.10883e-03
       O -1.03429e-03  2.88629e-04  2.70174e-04
       H  1.64977e-03 -1.17919e-03  8.30751e-04
       H  5.62175e-03 -4.71704e-03 -6.29789e-05
       O -1.05651e-03 -1.10191e-03  1.97115e-03
       H  4.62007e-04  5.36034e-03  1.79720e-03
       H  1.63302e-03  6.20988e-03  3.89441e-05
       O  1.54428e-04  7.02316e-05 -4.71019e-04
       H -1.68961e-03  7.70447e-03 -1.39816e-03
       H  4.89439e-03  3.92350e-03  3.22347e-03
       O -5.27274e-04  5.85553e-04 -2.15994e-04
       H -3.87347e-04  2.39101e-04 -2.54435e-04
       H  5.82886e-05 -3.96507e-03 -5.21245e-06
192
# CELL(abcABC):   16.99620    29.43815    27.67315    90.00000    90.00000    90.00000  Step:          30  Bead:       0 velocities{atomic_unit}  cell{atomic_unit}
       O  2.12316e-04 -6.58032e-04  1.83367e-03
       H  3.41488e-03 -6.44015e-04  2.09454e-04
       H -1.40527e-03  3.51889e-03  2.81361e-03
       O  7.36126e-04  1.22043e-03  1.63341e-03
       H  7.73418e-03 -3.60818e-03  5.73578e-03
       H  2.19920e-03  2.06948e-03  2.84246e-03
       O  3.23023e-04 -1.99320e-03  2.35537e-03
       H -4.45200e-03  3.55306e-05  1.66907e-03
       H  9.06413e-04  2.51340e-03  7.02261e-04
       O -1.30678e-03  9.62316e-04 -1.22429e-03
       H -7.25455e-04 -3.18681e-03  2.69851e-03
       H -3.10359e-03 -1.05519e-04  1.14456e-03
       O -2.22828e-04 -8.63739e-04 -1.85055e-04
       H  1.37328e-03 -3.75294e-03 -5.51635e-03
       H  5.03735e-03  5.16291e-03  1.27530e-03
       O  2.62464e-04 -2.91289e-04  9.11362e-05
       H  4.39035e-03  1.36030e-04 -2.09613e-04
       H -1.01150e-03 -2.87285e-03 -5.36785e-03
       O -6.10796e-04 -1.85849e-04 -6.11326e-04
       H -1.49251e-03  1.28911e-03 -7.69130e-03
       H -4.60146e-03  7.96806e-03 -4.00362e-03
       O -1.01413e-03 -2.46685e-04 -7.44418e-04
       H -5.61407e-03 -2.02807e-03 -5.56132e-03
       H  1.12304e-03 -9.65860e-04 -7.02370e-04
       O -1.64385e-03 -2.42213e-03 -1.13764e-03
       H  4.96471e-03 -2.39830e-03  1.29347e-03
       H  8.84962e-03  9.36322e-04  3.31699e-03
       O  1.24196e-03 -3.40068e-04  1.03800e-03
       H  2.33663e-03  1.31933e-03  1.11876e-03
       H  2.54475e-03 -1.07989e-03  3.79983e-03
       O -8.86257e-04  1.30597e-03  1.35722e-03
       H  6.33026e-03  1.07885e-03  2.07507e-03
       H -6.21818e-03 -7.10719e-04 -1.93943e-03
       O  8.51325e-04 -9.55604e-04  1.16159e-04
       H -3.17000e-03  9.75125e-04  4.17213e-04