192
# CELL(abcABC):   16.99620    29.43815    27.67315    90.00000    90.00000    90.00000  Step:           0  Bead:      22 velocities{atomic_unit}  cell{atomic_unit}
       O -4.98491e-04  8.08365e-04 -6.18690e-04
       H -6.50705e-03  1.02014e-03  1.17108e-03
       H -3.29573e-03  3.19040e-03  1.33209e-03
       O  1.44156e-05 -5.66143e-04 -1.42452e-03
       H -4.17158e-03 -6.94160e-03  3.89701e-03
       H  6.26412e-03  1.75869e-03  2.66102e-03
       O  1.31108e-03  8.51437e-04 -7.53318e-04
       H  8.36233e-04 -4.16842e-03 -1.99939e-03
       H  3.97907e-03  1.64723e-03  7.17492e-03
       O  7.96387e-04  1.96683e-04  3.93042e-04
       H -3.39104e-03  6.00475e-04  5.92470e-03
       H  7.90480e-03  2.38071e-03  5.80465e-03
       O  8.27351e-04 -4.06711e-04 -1.80512e-03
       H  6.76892e-04  4.98333e-03 -3.62710e-03
       H -8.52068e-04  2.34530e-03  1.14044e-02
       O  9.73878e-05  3.44293e-04 -1.73703e-03
       H  2.86905e-03 -1.14388e-03  5.15802e-03
       H -5.06006e-04 -4.91198e-03 -2.33920e-03
       O  2.30018e-06  8.31736e-04  6.19906e-04
       H  2.71956e-03  2.38141e-04 -2.12738e-03
       H -5.10991e-03 -5.93670e-03  4.60312e-03
       O -1.22505e-04  2.45522e-04  6.63735e-05
       H -1.06439e-03  3.61511e-03 -3.43017e-03
       H -2.72949e-03  1.85023e-03  6.79441e-04
       O -3.63086e-04 -1.29055e-04 -6.05267e-04
       H -1.21828e-03  9.70000e-04 -7.28780e-03
       H  7.81593e-04  9.70543e-04  3.32830e-05
       O  3.75962e-04  4.35104e-04 -8.27995e-04
       H -2.68627e-03  2.97426e-03  1.72518e-03
       H -6.29968e-03 -8.59633e-03  5.59523e-03
       O -4.53690e-04  8.42075e-05 -1.42562e-03
       H  7.44674e-03 -2.37367e-04 -1.51331e-03
       H -2.43721e-04 -1.38400e-03 -1.55226e-03
       O -1.72812e-04  1.50602e-03  9.86246e-04
       H -3.03899e-03 -2.76812e-03 -7.12594e-03
       H  3.69036e-03 -1.92035e-03 -2.13291e-03
       O -1.60979e-03 -3.89388e-04  4.37143e-05
       H -8.56604e-03 -6.40708e-03 -5.03128e-03
       H -5.59833e-03 -4.79905e-03  2.66126e-03
       O  1.50525e-04  6.41885e-04 -1.31027e-03
       H -3.80704e-03 -2.60912e-03 -2.25129e-04
       H -3.69841e-03 -2.18173e-03 -4.87785e-03
       O -6.56251e-06 -2.39617e-03 -9.55821e-04
       H -9.77052e-04 -2.36186e-03  3.95893e-04
       H  5.58306e-03 -6.69631e-03 -4.90176e-03
       O  1.23990e-03 -1.11016e-03 -9.99300e-04
       H -7.37848e-04 -4.87989e-03  7.52285e-03
       H -9.44855e-04  1.54432e-03 -8.67569e-04
       O  5.42414e-04  2.04791e-04 -1.41294e-03
       H -3.32687e-03 -1.72365e-03  5.19484e-03
       H -1.80467e-03 -1.28312e-03  3.79567e-03
       O -1.83001e-04 -6.95561e-04  7.19472e-04
       H -2.45883e-03  1.26621e-03  6.54394e-04
       H -2.23638e-03 -4.89541e-03  7.12333e-03
       O  1.23146e-03  5.96893e-04 -1.28830e-03
       H  8.81817e-04 -1.02469e-03 -3.69362e-03
       H -1.92288e-03  5.41254e-03 -7.97272e-04
       O  3.67326e-04 -1.03009e-03 -6.73582e-04
       H -1.91506e-03 -3.36168e-03  7.54969e-04
       H  1.68372e-03 -5.73148e-03 -2.43501e-03
       O  5.90009e-05  5.09861e-04  5.94389e-05
       H  3.79611e-03 -9.25884e-03  3.17852e-03
       H -5.53200e-03 -1.73691e-03 -1.76720e-03
       O -2.73707e-04 -1.10662e-03  2.27097e-04
       H -1.44852e-03  4.04246e-03  2.49405e-03
       H  5.06703e-03 -3.32691e-03  3.02018e-03
       O -3.69551e-04 -4.95092e-04 -1.48547e-04
       H -3.85735e-03 -1.79852e-03 -1.97075e-03
       H -9.93109e-04 -1.74872e-03  1.25112e-03
       O  1.65188e-03 -9.41107e-04  4.72094e-04
       H -5.56455e-03 -1.38864e-03  2.45198e-03
       H  7.26470e-04  7.72993e-03  1.35096e-03
       O -1.01010e-03  3.45892e-04  5.40590e-04
       H -7.23700e-03 -4.79759e-03  2.90753e-03
       H  2.96134e-04 -5.23428e-04 -6.30456e-03
       O -1.41424e-04 -6.54351e-04 -1.28113e-03
       H  5.18788e-04 -3.25789e-03 -5.95358e-04
       H -1.01950e-03 -2.21785e-03  1.77728e-03
       O  1.81294e-03  1.18349e-03 -1.39710e-03
       H  2.28757e-03 -8.88567e-03 -3.81144e-04
       H  5.67629e-04  2.74345e-03  9.09735e-04
       O -1.63153e-03  1.11122e-03 -2.77494e-04
       H -1.37466e-03 -4.58416e-03  2.25410e-03
       H  7.56758e-04 -3.52071e-03 -1.77092e-03
       O  4.64032e-04 -1.11059e-04  7.50199e-05
       H -1.15629e-03  4.27246e-03 -3.28341e-05
       H  7.69142e-04 -1.25967e-03  3.26402e-03
       O -1.22483e-04  6.13758e-04 -1.42728e-04
       H -1.11994e-03  1.15756e-02 -5.12579e-03
       H  2.77842e-03  1.96585e-04 -4.15594e-04
       O  4.53002e-04 -1.32309e-03  1.17952e-03
       H -3.18576e-03  2.28588e-04  1.64967e-03
       H -4.51157e-05 -2.29130e-03  4.85317e-03
       O -9.54407e-04 -9.01102e-04  1.27349e-03
       H -1.56569e-03  9.73191e-04  3.43243e-03
       H  2.50036e-03 -3.55885e-04 -1.22915e-03
       O  5.80259e-04  7.79045e-05  6.98932e-05
       H  4.84932e-04 -1.28983e-03  5.06706e-03
       H  1.23604e-03 -1.96609e-04  3.36725e-03
       O  7.37485e-04 -8.69253e-04  1.32843e-05
       H  6.02040e-03 -2.74344e-03 -7.18786e-03
       H  4.11470e-03 -1.80210e-03 -1.38394e-03
       O  8.20063e-04  1.63939e-03 -2.25276e-04
       H -2.87004e-03 -7.55194e-04 -2.21039e-03
       H -7.01380e-03  3.44915e-03 -1.58848e-03
       O -6.60724e-04  4.52800e-04  5.82197e-04
       H  6.86951e-04 -3.20644e-03  5.46913e-04
       H -2.91604e-03  1.33905e-03  2.48518e-03
       O -1.79578e-04  6.75486e-04  7.20333e-04
       H -1.42298e-03  4.06702e-04 -3.78475e-03
       H -4.18153e-03 -6.69332e-03  3.93941e-03
       O  1.69325e-03 -1.21918e-03 -2.21820e-03
       H  1.88579e-03 -2.62714e-03 -1.64743e-03
       H  4.80596e-03  3.71365e-03 -2.11630e-03
       O  2.89145e-04  2.08446e-04  2.67630e-04
       H  5.75696e-03  5.06922e-04 -7.35630e-03
       H  6.66849e-03  1.18814e-04 -9.52602e-04
       O -1.58484e-03 -4.59420e-04  3.69034e-04
       H -1.48316e-03 -2.31533e-03  2.12789e-04
       H  1.40865e-03  3.50805e-03 -4.50531e-03
       O  3.84589e-04  7.26894e-04 -6.09889e-04
       H  2.79651e-04  3.39739e-03 -1.08253e-03
       H -4.13817e-05 -2.57502e-03  2.17379e-03
       O  1.43320e-03 -1.15819e-03 -1.68968e-03
       H  5.48908e-03  1.11146e-04  9.39221e-04
       H -1.16934e-03  9.34643e-04  3.72995e-03
       O  2.17537e-03 -1.03578e-03  3.75897e-04
       H  4.67987e-03 -3.85362e-03  5.95266e-03
       H  3.97658e-03 -2.68742e-03 -1.42412e-03
       O -3.46760e-04  2.13782e-03 -5.80737e-04
       H -8.24447e-04 -3.07936e-03 -3.88806e-03
       H -8.38836e-04 -1.60299e-03 -2.26181e-03
       O  2.46855e-04  5.44470e-04 -4.35139e-05
       H  2.91263e-03 -2.02686e-03  1.13432e-03
       H  2.63875e-03 -2.76526e-03  3.93374e-03
       O -4.98921e-04  2.99380e-04  4.07846e-04
       H -2.99451e-03 -2.54281e-03 -5.65220e-03
       H -7.87107e-04  4.11748e-04 -1.80622e-04
       O  2.17572e-03 -1.83935e-04 -1.78812e-04
       H  5.00602e-03  2.49428e-03  3.11069e-04
       H  6.39826e-05 -1.39967e-03 -2.94045e-03
       O -3.23604e-03 -7.96321e-04 -5.64232e-05
       H -2.16106e-03  2.09547e-03  5.23356e-04
       H -1.44669e-03 -2.69146e-03  2.22120e-03
       O  1.58562e-03  1.89368e-03 -3.26125e-04
       H -6.02234e-04  6.90985e-04  5.67678e-03
       H -4.84258e-03  2.80368e-03  4.39193e-03
       O  1.59331e-03 -7.41545e-04 -4.41766e-04
       H  8.24713e-04 -3.35991e-03  4.61731e-03
       H -3.25654e-03  2.28071e-03 -1.33822e-03
       O  1.65965e-04 -1.77266e-04  8.88246e-04
       H  3.73421e-03  3.40271e-04  2.55867e-03
       H -4.99806e-03  2.06105e-03  2.51575e-04
       O -1.73387e-03 -3.90289e-04  1.66710e-04
       H  3.99367e-03 -1.00592e-03 -1.44428e-03
       H  6.24799e-03  1.70713e-03  9.91870e-04
       O -2.70418e-04 -6.44699e-04  9.97991e-04
       H -2.61013e-04  2.50898e-03  1.46734e-03
       H  2.29634e-03  2.82107e-03  3.50425e-03
       O  5.32742e-04 -3.58432e-04  4.06438e-04
       H  1.11326e-03 -5.59860e-03 -8.78916e-04
       H  3.11853e-03  1.86178e-03  7.14883e-04
       O -6.07604e-04 -1.07536e-03  1.57263e-04
       H -4.15031e-03 -4.92906e-03  8.44004e-05
       H -3.13389e-03 -3.09816e-03  1.17197e-03
       O -2.68885e-04  1.04318e-04 -1.06945e-04
       H -1.15506e-03 -4.73420e-03 -2.70340e-03
       H  5.79423e-03  1.71557e-03 -7.10741e-03
       O  1.90301e-04  3.96372e-04  1.92493e-04
       H  2.53879e-03  1.30582e-03  1.57724e-03
       H -2.28530e-03 -2.23867e-04  4.03403e-03
       O -2.02474e-03 -3.21146e-04 -1.12237e-03
       H -9.80269e-03 -5.07681e-03  3.00448e-03
       H  4.93658e-03  3.22147e-03 -1.21700e-03
       O  6.10416e-04 -6.79438e-05 -5.02638e-04
       H  2.60673e-03 -1.31122e-03 -3.99474e-03
       H  4.72368e-03  2.22950e-03 -6.16412e-03
       O  3.36252e-04 -7.22845e-04 -8.59542e-04
       H  2.00305e-03 -3.86376e-04  4.43342e-03
       H -3.83307e-03  2.95598e-03  3.39713e-03
       O  1.75110e-04 -1.51997e-03  1.22443e-03
       H -4.93737e-04  9.16200e-05 -2.19190e-03
       H  7.30351e-03 -1.44699e-03 -6.36907e-04
       O  4.29867e-04 -5.62891e-04  6.89722e-04
       H -8.10430e-04  6.88409e-03 -3.52662e-03
       H  5.58955e-04 -2.20785e-04  3.14822e-03
       O  9.96451e-04  2.78227e-04 -1.11729e-03
       H -4.95045e-03 -8.68353e-04 -3.75870e-03
       H -8.56300e-04 -2.07173e-03 -1.24257e-03
       O  1.91272e-04  1.45226e-03 -3.03215e-04
       H  3.74139e-03 -2.83016e-03  3.70886e-03
       H  1.55165e-03 -1.35631e-03 -3.83481e-03
192
# CELL(abcABC):   16.99620    29.43815    27.67315    90.00000    90.00000    90.00000  Step:          10  Bead:      22 velocities{atomic_unit}  cell{atomic_unit}
       O  3.67629e-05 -1.15301e-04  7.27830e-04
       H -1.13052e-03 -5.55014e-05  8.23592e-03
       H  1.64202e-04  3.07912e-03  2.64077e-04
       O  1.29568e-03  4.11414e-04  9.56108e-04
       H  4.96491e-03 -1.59327e-03  1.59912e-03
       H  1.26478e-03  3.84087e-03 -4.88896e-03
       O -7.82307e-04  6.60872e-04  1.68592e-05
       H  4.00152e-03  3.08751e-03 -7.39213e-03
       H  8.60692e-03 -3.08229e-03 -1.11188e-03
       O  6.83748e-04 -2.00655e-04  5.99674e-04
       H -5.09354e-03  5.83142e-03  7.39595e-03
       H -6.77433e-03 -2.19540e-04 -3.59039e-03
       O -2.31945e-03  4.03856e-04 -7.18777e-04
       H  2.40471e-03  2.68421e-03  3.20194e-05
       H -4.98604e-04  1.60487e-03 -1.69633e-03
       O  1.63025e-04 -5.43987e-04 -2.23544e-04
       H  9.47528e-04 -8.01844e-04  1.04107e-03
       H -3.24832e-03  2.74625e-03 -8.23730e-03
       O  1.60695e-04 -1.76086e-04  4.48509e-04
       H -3.88134e-04  3.68722e-03 -5.33293e-03
       H  5.63661e-03  5.10148e-03  1.60815e-03
       O -1.04086e-03  1.53161e-03 -9.35521e-05
       H  1.64104e-03 -3.41064e-03 -1.51796e-03
       H  8.50530e-04 -7.54083e-04 -2.30511e-03
       O -1.47312e-03 -5.16804e-04 -1.59411e-03
       H  1.47890e-03 -6.74665e-03  6.28822e-04
       H -3.61098e-03 -2.54643e-04 -2.97635e-03
       O  1.13640e-03  1.97867e-03  1.53517e-04
       H  1.57682e-03  1.36684e-03  5.06911e-03
       H -1.69187e-03 -6.10316e-04 -6.52264e-03
       O  9.34763e-04  1.95810e-03  3.72901e-04
       H  7.31087e-05  1.34511e-03  2.59688e-03
       H  3.82009e-03 -6.27026e-03 -5.15063e-03
       O  4.43425e-04 -1.25479e-04  2.44698e-04
       H  5.87295e-04  2.81664e-03 -7.26889e-03
       H  4.88751e-04  3.26348e-03 -3.47707e-03
       O -8.12243e-04  6.31259e-04 -9.49416e-04
       H -3.70249e-03 -2.47219e-03 -2.67202e-03
       H  2.94026e-03  6.71038e-03 -8.91414e-04
       O -4.00050e-04 -1.42860e-04  2.13861e-04
       H -6.17114e-03 -2.31408e-03  6.26852e-04
       H -2.22583e-03 -4.51224e-03  8.20286e-03
       O  3.99838e-08  3.34014e-04  1.11891e-03
       H -1.89844e-03  4.34044e-03 -3.08531e-03
       H  7.51529e-04 -3.15305e-03 -5.00041e-05
       O -8.02264e-04 -4.06817e-04  4.48267e-04
       H -1.55157e-03 -3.79389e-03  3.64175e-03
       H  1.12127e-03  3.55528e-03 -1.92136e-04
       O -1.00461e-03 -1.05833e-03 -2.81259e-04
       H  4.70576e-04 -4.16865e-03  8.00435e-03
       H -3.20871e-04  5.25362e-05  3.77082e-03
       O -8.44489e-04 -8.94005e-04  4.52107e-04
       H -3.67828e-04  4.66118e-04  3.75497e-04
       H  7.26035e-03  3.87900e-03 -3.25987e-03
       O  6.71363e-04 -1.37519e-04 -1.13723e-03
       H  1.25578e-04 -2.28747e-03  1.32061e-03
       H -3.46823e-03 -5.54466e-04  2.53741e-03
       O  1.00426e-03 -2.10850e-03 -6.00593e-04
       H  5.68424e-03 -1.07623e-03 -1.28852e-03
       H -2.84900e-04  2.06890e-03  6.68492e-03
       O  1.50513e-03 -8.72221e-04 -4.34084e-04
       H -2.91243e-03 -1.59234e-03  1.06446e-03
       H  1.30653e-04 -6.43489e-03 -3.54809e-03
       O -8.98171e-04  7.98867e-04 -1.03461e-03
       H -2.49779e-03  3.60507e-03  5.66810e-03
       H  2.59559e-03  4.85691e-03  6.02411e-03
       O -1.17569e-04  1.17249e-03  8.36825e-04
       H  6.49353e-03 -1.81583e-03 -3.98073e-03
       H -4.51839e-03  6.56335e-03 -1.32246e-03
       O  1.13901e-04  1.01992e-03 -2.69180e-04
       H  8.64139e-03  8.33760e-04  2.66919e-04
       H  4.50955e-03 -3.47787e-03  2.95601e-04
       O  4.52052e-04 -1.74141e-03  7.17943e-04
       H  8.13896e-03  2.23202e-03  3.51985e-03
       H -2.28222e-03 -3.15555e-03 -2.22724e-03
       O -2.72186e-04  1.34087e-03 -1.08876e-03
       H  6.29018e-04 -5.28001e-04  2.43759e-03
       H  2.77244e-03 -5.76519e-03  2.34102e-03
       O  1.95417e-05 -2.73681e-04 -1.04588e-04
       H -7.89522e-04  5.12830e-03  1.26032e-03
       H -9.88445e-04 -1.40430e-03 -1.57489e-03
       O -3.97081e-05 -8.23694e-04 -2.09145e-03
       H  4.42915e-03 -5.05739e-05  4.25215e-04
       H  1.85535e-03  3.62471e-03 -1.02956e-02
       O  3.73818e-05 -1.44377e-03 -3.53048e-04
       H -2.50567e-03 -1.30412e-04  6.95276e-03
       H  1.67766e-03 -1.42123e-03 -4.19560e-04
       O  2.88088e-04  8.77372e-04 -4.89629e-04
       H  2.77402e-03 -1.81035e-03 -7.92937e-04
       H  1.51446e-03 -6.14359e-03  3.34277e-03
       O -7.51934e-05 -3.55541e-04  1.27256e-03
       H  1.26438e-03  2.68859e-03  1.46517e-03
       H -1.10714e-03 -6.16068e-03 -3.76789e-03
       O -3.52462e-05  4.55461e-04 -8.60118e-04
       H -1.55208e-03 -7.20663e-04 -2.05587e-04
       H  4.80714e-03 -5.83322e-05  2.89037e-04
       O  1.34660e-04  1.43760e-03 -2.20050e-03
       H  2.77037e-03 -6.45634e-04  1.55752e-03
       H -3.80397e-04  4.02283e-03  3.03116e-03
       O  2.91613e-04  1.87934e-04  2.18531e-03
       H -2.67129e-03  5.59826e-03  1.20031e-03
       H  1.97002e-03  6.18632e-04 -2.07378e-03
       O  2.27746e-04 -6.70374e-04  5.36454e-04
       H  1.43692e-06  1.65125e-03  5.91562e-03
       H  7.39465e-03 -3.82828e-03 -2.97016e-03
       O  3.94088e-04  8.61800e-05 -5.43133e-05
       H  9.44573e-04  1.43376e-03 -1.26495e-03
       H  5.86150e-05  1.56481e-03 -2.93579e-03
       O  7.68560e-04 -2.97619e-04  1.42144e-03
       H -3.35566e-03  3.37120e-03  3.56862e-03
       H -5.79341e-04 -6.19821e-04  1.59017e-03
       O  8.76067e-04 -8.51701e-04 -1.24705e-03
       H -2.39139e-03 -6.48568e-03 -7.13349e-04
       H -7.51962e-03 -4.48714e-03 -2.69083e-03
       O  5.41255e-04  1.20429e-03 -2.91527e-04
       H  5.03369e-03  3.78632e-03 -3.64854e-04
       H -1.55271e-03  2.32753e-03  3.96240e-03
       O  8.21149e-04 -4.33205e-04  1.03012e-03
       H  1.42792e-03  7.73551e-05  1.68084e-03
       H -1.42822e-03  1.62639e-03 -3.29432e-03
       O -4.98605e-04 -2.04789e-03 -1.24497e-03
       H  4.87007e-03 -1.72583e-03  8.53815e-04
       H -3.88082e-03 -5.77608e-03  9.25611e-03
       O  3.19605e-04 -6.87122e-04 -1.50054e-04
       H  5.01709e-04 -1.08213e-03 -4.39642e-03
       H -7.69301e-04 -3.28256e-03 -3.29974e-03
       O -4.84868e-04 -3.82921e-04 -6.11635e-04
       H -9.34227e-04 -3.19269e-03 -7.22559e-03
       H -5.71078e-03  8.01970e-04 -3.33432e-03
       O -6.75525e-05 -1.53683e-03  1.66068e-03
       H  4.43642e-03 -5.00133e-03  2.08097e-03
       H -9.08926e-04 -3.63861e-03 -3.02390e-04
       O -2.28743e-03  5.09503e-04  5.38099e-05
       H -2.03086e-03  3.44014e-03  2.03144e-04
       H -2.13460e-03 -1.94615e-04  1.64546e-03
       O -2.01523e-03 -8.64089e-04 -1.19574e-03
       H -2.27517e-03  2.11685e-03 -6.02400e-04
       H  3.13703e-03  1.96825e-03 -2.89662e-03
       O -9.04370e-05 -1.32972e-03 -3.07834e-04
       H  2.58938e-03  3.04242e-03  1.34929e-03
       H  2.91748e-03 -9.80108e-03  1.91080e-03
       O -9.92435e-04 -2.53015e-04 -1.48894e-03
       H  2.70230e-03 -5.37457e-03 -2.92707e-03
       H  1.62493e-04  2.42871e-03 -3.48657e-03
       O -4.72065e-04 -1.18328e-03  1.64662e-03
       H  2.90018e-03  3.52872e-03 -2.33450e-04
       H  2.40711e-03  4.15580e-03 -2.47923e-03
       O -6.10961e-04  1.94294e-03 -3.52357e-04
       H  1.51322e-04 -7.43583e-03  6.46504e-04
       H  1.98156e-03 -4.27327e-03  2.81067e-03
       O  2.17279e-04 -6.28570e-05  2.28372e-03
       H  1.65991e-03  1.10410e-02  6.13351e-04
       H  3.02241e-03  3.27126e-03 -3.02268e-03
       O -4.60064e-04  6.63739e-04 -3.86353e-04
       H  5.69350e-03  7.87487e-03  2.63752e-03
       H  6.86978e-03  2.72866e-03 -1.59694e-03
       O -6.99368e-05 -1.45509e-03  1.10863e-03
       H -4.84935e-03 -2.63953e-03 -5.14221e-03
       H -1.51258e-03  8.66975e-04 -3.95732e-04
       O  2.15134e-04  4.33823e-05 -1.60063e-03
       H  1.42597e-03 -1.70110e-03 -6.42121e-04
       H  3.28332e-03  3.63159e-05  1.85343e-03
       O -5.68011e-04 -1.52923e-03 -2.98773e-04
       H -2.38267e-03  5.30774e-03 -3.13519e-03
       H -1.37915e-03  1.73051e-03 -6.97198e-04
       O -3.92032e-04  6.64031e-04  2.63601e-04
       H -1.96979e-03 -1.19813e-03 -4.88711e-04
       H -5.26320e-03  2.26809e-03  6.51454e-03
       O -8.40698e-04 -4.67009e-06  6.56560e-04
       H -4.59296e-03 -1.87269e-03  4.61802e-03
       H -5.83232e-04 -5.86146e-03 -5.14966e-05
       O  1.54143e-03 -2.67315e-04  1.89116e-03
       H -2.04478e-03 -4.11086e-03  5.76849e-03
       H -2.02264e-03  5.94316e-03 -3.49818e-03
       O  7.55082e-04  2.19662e-04 -2.30320e-03
       H  3.71226e-03 -7.94585e-03 -3.32070e-03
       H  6.34224e-03  2.81970e-03 -1.17802e-02
       O  1.47953e-04  5.02223e-04  1.48641e-03
       H -3.91723e-04  5.09558e-04  4.26437e-03
       H -4.69415e-03 -3.67855e-03 -2.74481e-03
       O  2.02317e-03  6.11920e-04 -1.35241e-03
       H  7.18757e-03 -5.82603e-03  3.18586e-03
       H -4.53597e-04 -1.45057e-03  3.68137e-03
       O -4.75570e-05 -1.89319e-03 -2.17043e-04
       H  9.99899e-04  3.99629e-03 -6.30522e-04
       H -4.25127e-03 -5.08508e-03  2.40431e-03
       O  7.98512e-04 -6.78802e-04  1.41251e-04
       H -8.47878e-03 -4.90515e-04 -2.37282e-03
       H  6.41180e-03  6.32934e-03  4.43076e-03
       O -7.97572e-05 -2.89952e-04 -7.68994e-04
       H -1.09314e-03 -4.94232e-03 -1.73758e-03
       H -1.07065e-02 -4.82679e-03 -2.16751e-03
192
# CELL(abcABC):   16.99620    29.43815    27.67315    90.00000    90.00000    90.00000  Step:          20  Bead:      22 velocities{atomic_unit}  cell{atomic_unit}
       O  1.61361e-03 -6.55982e-04  7.97961e-04
       H -3.46325e-03 -3.09916e-04  1.61745e-03
       H  3.15076e-03 -4.85777e-05 -4.30143e-03
       O  2.26807e-04  1.46838e-03  4.16853e-04
       H -2.08360e-03  5.73521e-03  4.39928e-03
       H  6.03223e-03  1.48516e-03  6.66346e-03
       O -1.57545e-03  1.71610e-04 -3.01295e-04
       H -5.22882e-04 -4.63024e-03  2.68889e-03
       H -4.50892e-03 -3.21018e-03  2.50432e-03
       O -1.49352e-03  1.38122e-03  6.75508e-04
       H  2.77562e-03 -1.05123e-02 -7.39465e-04
       H -2.53533e-03 -1.08846e-03  1.42817e-03
       O  6.79520e-04  4.91549e-04  1.80645e-03
       H  5.26622e-04  7.71124e-04 -4.76392e-03
       H -3.66083e-04  2.99191e-03  1.75023e-03
       O -5.07573e-04  1.67070e-03  1.15462e-03
       H -2.07672e-03 -3.99584e-03 -6.79003e-03
       H -2.19438e-03  2.18901e-04  5.89885e-04
       O -1.04640e-03 -7.73962e-04  1.81532e-03
       H -4.62300e-03  8.85612e-04  6.21199e-04
       H -2.81763e-03 -4.92026e-04  3.07109e-03
       O  7.21017e-04 -2.68617e-04  2.37351e-03
       H  1.43093e-03 -6.19121e-04 -1.92744e-03
       H -2.05587e-03 -2.81409e-03 -3.92237e-03
       O -8.39275e-04 -3.39960e-04  7.65942e-04
       H -2.83228e-03 -4.95820e-03 -2.69898e-03
       H  2.70373e-03 -2.28636e-03 -5.72621e-03
       O  6.15031e-04  8.84013e-04  4.63780e-04
       H  1.71903e-03  4.56192e-03 -1.29730e-03
       H  8.82953e-04  4.24535e-03 -1.38581e-04
       O -2.89210e-04 -1.68996e-04  1.29203e-03
       H -6.03469e-03  2.33029e-03 -6.45011e-03
       H  5.29357e-03 -3.73188e-03 -2.67380e-05
       O  3.39704e-04 -6.28027e-04 -2.89096e-04
       H -4.71612e-03  1.68956e-03 -1.63071e-03
       H -2.86651e-03  2.92323e-03  5.50615e-03
       O -1.29436e-03  5.37543e-04 -7.62396e-04
       H  1.20281e-03  2.79853e-03 -2.48814e-03
       H  2.70774e-04  7.73124e-04 -3.05721e-03
       O  6.58292e-04  1.10892e-03 -5.88082e-04
       H -2.36944e-03  7.55527e-03  4.86351e-03
       H  4.81948e-03  8.18969e-03 -5.83537e-03
       O  1.68860e-04  7.04470e-04 -3.48330e-04
       H -6.93626e-04 -3.72246e-03  3.56325e-03
       H -5.85070e-04  1.87392e-03  2.84067e-03
       O -6.53754e-04  2.31466e-03  6.10680e-04
       H  1.60566e-04 -1.58331e-04 -1.86197e-03
       H  4.10732e-03  8.49243e-03  7.31246e-03
       O -1.57840e-03 -3.39064e-04 -3.42472e-04
       H -2.30872e-03  2.37632e-05 -6.97676e-04
       H  5.66008e-03 -9.59414e-04  3.89948e-03
       O -8.07231e-04 -5.97576e-04  6.05222e-04
       H  2.88747e-03  1.65835e-03  1.85275e-03
       H  1.50736e-03  2.54943e-03 -2.15509e-03
       O  8.55961e-04 -2.09940e-03 -1.02340e-03
       H  2.09516e-03 -9.97672e-04  3.76898e-03
       H -2.90363e-04 -1.19998e-03 -4.04434e-03
       O  7.03636e-04  2.33617e-03  9.86769e-05
       H  2.41911e-03 -5.47492e-03  2.41496e-04
       H -2.09732e-03 -5.69688e-03  2.60859e-03
       O -5.33321e-04  2.78519e-04  3.58262e-04
       H  1.74627e-03  4.15390e-03  1.85325e-03
       H  4.83175e-03 -2.29633e-03  3.50972e-03
       O  1.02043e-03  1.25218e-04 -6.57938e-04
       H -1.98204e-03 -7.65413e-03  2.41233e-04
       H -1.07590e-03 -5.55715e-03  3.15895e-03
       O -2.89754e-04  1.54375e-03  1.36053e-03
       H  4.04350e-03  6.66296e-04 -3.11815e-03
       H -1.30509e-03  2.60500e-03 -2.45528e-03
       O -1.41277e-04 -8.25360e-04 -1.58164e-03
       H -1.87705e-03  7.74565e-03 -2.70728e-03
       H -2.77834e-03 -8.20219e-04 -4.59161e-03
       O  1.43566e-03 -6.57877e-04 -9.84473e-04
       H  3.54722e-03  1.73349e-03  1.60343e-03
       H -4.17886e-03  6.87834e-03 -4.54019e-03
       O  2.86027e-04  1.93992e-04  4.21091e-04
       H -1.14328e-03  3.34693e-03 -5.14297e-03
       H -2.49573e-03 -1.54903e-03  2.34346e-04
       O -1.41559e-03 -6.98500e-04  7.94565e-04
       H  8.71858e-04 -1.35452e-03 -6.02473e-03
       H  1.11279e-03  2.29766e-03  2.35669e-04
       O  2.73961e-04 -3.23765e-04  4.27425e-04
       H -2.81767e-03 -2.89593e-03 -4.69216e-03
       H -2.98308e-04  4.52119e-03  2.63973e-03
       O  1.31455e-03  8.71531e-05 -1.15422e-03
       H  4.85366e-03  2.15274e-03  2.50091e-03
       H -2.17442e-03 -3.51092e-03 -3.87961e-03
       O -9.60645e-04 -1.78880e-04  5.68971e-05
       H -7.56246e-04  9.39095e-03 -4.43232e-03
       H  2.53396e-03  3.54967e-03 -1.26686e-03
       O -1.72933e-04  1.31911e-03  4.28404e-04
       H  1.53396e-03  1.74262e-03 -7.06637e-03
       H  2.84838e-03 -5.99004e-04  6.35507e-03
       O  4.24074e-04 -6.02190e-04 -9.84089e-04
       H -3.54931e-03  7.08237e-03 -1.24067e-03
       H -5.82723e-03  2.37407e-04  7.18389e-03
       O  4.13805e-04 -9.25047e-04 -1.66563e-03
       H  3.96185e-03 -9.16819e-05 -2.99380e-03
       H -1.05152e-04 -6.35752e-03  1.94161e-03
       O  1.75152e-03  6.88464e-04 -1.61129e-03
       H  4.86477e-04  1.51259e-03 -6.01115e-03
       H  3.15448e-03  1.27163e-03 -5.28178e-03
       O -9.24621e-04  8.76107e-04 -1.74360e-03
       H  1.20509e-03 -2.19757e-04  3.22195e-03
       H  6.10224e-04  3.29472e-03  6.55670e-03
       O  4.16408e-04 -5.67570e-04  1.59527e-03
       H -2.98663e-03  1.70833e-03  8.96054e-04
       H -4.98775e-03  5.51835e-03  1.86906e-03
       O -3.10152e-04  5.55656e-04 -2.70583e-05
       H -1.63083e-03 -4.21751e-03  1.05061e-03
       H  1.13003e-03 -9.60024e-03 -6.34244e-03
       O -7.33860e-04  3.46764e-04 -8.55513e-04
       H  1.44534e-04 -4.97079e-03  2.12337e-03
       H -1.86397e-03 -6.12815e-04 -1.35336e-03
       O  4.68272e-04  3.34714e-04  1.38948e-03
       H  3.30386e-03 -2.87752e-03 -2.35105e-03
       H -3.70251e-03  1.43057e-03 -3.10213e-03
       O  6.96339e-04  4.65199e-04 -9.48127e-04
       H  1.25035e-03  3.21172e-03  2.29177e-03
       H  1.41286e-03 -9.69229e-04  5.14407e-03
       O -4.51635e-04 -3.73075e-04 -8.93907e-04
       H -1.88969e-03  3.31651e-03  1.79621e-03
       H  1.31890e-03  1.15391e-03  1.55412e-03
       O  4.89140e-04  1.56397e-03 -1.66423e-04
       H -2.89205e-03 -9.33372e-04  2.35246e-03
       H  6.17388e-03 -4.16701e-03 -3.49808e-03
       O  3.58419e-03 -8.48541e-04 -9.73568e-04
       H -8.83069e-04 -6.52703e-05 -1.29277e-03
       H -4.94699e-04 -9.74497e-05  5.50350e-03
       O  1.16060e-03  9.90026e-04 -5.28800e-04
       H  5.05715e-03  1.60220e-03  6.57611e-03
       H  2.26760e-03 -1.94490e-03  2.36476e-03
       O -5.18468e-04 -5.78292e-04 -5.54667e-04
       H -1.05962e-03 -5.04903e-03  4.22935e-03
       H -1.96239e-03  2.77768e-04 -7.44449e-03
       O  3.78993e-04 -4.92991e-04 -5.92491e-04
       H -1.31379e-03  2.54026e-03  4.72209e-03
       H  2.31104e-03  7.33186e-04 -2.64757e-03
       O  1.05101e-03  2.52023e-04  1.09323e-03
       H -5.17650e-03 -7.27201e-04 -2.00177e-03
       H  3.72410e-03 -4.63988e-03 -3.16100e-04
       O  3.04299e-03  6.26627e-05  1.47722e-03
       H  5.23759e-03  4.39623e-03  5.12042e-03
       H  2.28606e-03  3.32095e-03  7.02681e-04
       O -3.15096e-04  1.61860e-03 -6.35242e-04
       H -5.25499e-03  3.81269e-04 -3.79152e-03
       H  4.46292e-03  3.72416e-03 -3.68622e-03
       O  1.37621e-03 -5.38428e-04  1.58604e-03
       H -6.21305e-03  2.72720e-03  2.58854e-03
       H -6.00555e-03  1.78618e-03  8.30912e-04
       O  4.56975e-04  1.42799e-04 -8.74307e-05
       H  2.46167e-03 -2.97942e-03 -3.13748e-03
       H  5.95592e-03 -6.01560e-03 -5.66594e-04
       O -7.90342e-04 -7.76400e-04  1.30550e-03
       H  6.09551e-03  1.02225e-05 -7.40279e-03
       H -9.61735e-04 -9.61720e-04  2.56097e-03
       O -1.54558e-03  4.16642e-04  6.25733e-04
       H -9.04066e-04 -7.70450e-04  2.48584e-03
       H  4.05133e-03 -1.66284e-03  2.69056e-03
       O  8.88205e-04  1.64978e-03 -1.19959e-03
       H -1.74222e-03 -2.64811e-03 -3.15910e-03
       H -5.91937e-04  4.82407e-03  1.08005e-03
       O  4.31497e-04  7.26399e-04  7.33123e-04
       H  3.63205e-03 -8.84152e-03  1.25306e-04
       H -1.82574e-03  4.20025e-03 -5.10089e-03
       O -3.57321e-05 -6.10601e-04  7.43472e-05
       H -9.54130e-04  1.68375e-03 -3.82001e-03
       H  2.42201e-03 -3.58113e-03  7.54844e-03
       O  1.08910e-04 -4.88051e-04  2.26885e-04
       H  6.12865e-03 -9.19170e-04 -1.75038e-03
       H  6.74832e-04  4.22160e-03  3.53007e-03
       O  1.26987e-04  4.73780e-05 -1.67401e-03
       H  3.43370e-03 -1.09727e-04  1.72909e-03
       H  2.34100e-03  1.77275e-03  4.82981e-03
       O -1.07125e-03 -1.82026e-03 -1.46648e-03
       H  1.16497e-03  2.96246e-03 -7.61045e-03
       H  3.49735e-03 -5.07880e-03 -7.36054e-04
       O -1.48447e-03 -4.92152e-04 -2.27451e-03
       H  5.85208e-04  2.22620e-03  2.86399e-03
       H  9.46757e-03  9.38957e-04 -6.08542e-05
       O -4.38630e-04 -2.53169e-04 -6.15852e-05
       H  4.68113e-04 -4.17693e-04 -1.15281e-03
       H  2.62162e-04  8.40349e-04 -3.09000e-03
       O -8.75524e-04 -3.88318e-04 -9.02481e-05
       H -4.65061e-03  6.05736e-04  2.26686e-03
       H  3.20540e-03 -5.12236e-03 -3.46266e-03
       O  3.21271e-04  8.96277e-04  3.65611e-04
       H  5.05721e-03  4.68091e-03  3.93076e-03
       H -2.79456e-03 -2.05594e-03  4.36806e-03
       O -7.13716e-04 -1.98284e-04 -1.10697e-03
       H  6.20355e-04 -1.08193e-03  7.17747e-03
       H  3.54452e-03  5.63279e-03  7.26583e-03
192
# CELL(abcABC):   16.99620    29.43815    27.67315    90.00000    90.00000    90.00000  Step:          30  Bead:      22 velocities{atomic_unit}  cell{atomic_unit}
       O  4.38359e-04 -7.94841e-05 -1.76497e-04
       H  1.85333e-03 -2.56292e-03  1.80711e-03
       H  2.41950e-03 -1.66333e-03 -4.81748e-03
       O -4.59754e-04  3.18646e-04 -1.32024e-04
       H  2.20438e-03 -2.74609e-03 -2.75211e-03
       H -3.43828e-03 -6.37574e-03  2.29940e-04
       O -3.19705e-04  9.28770e-04 -9.32926e-04
       H  8.10616e-04 -5.70922e-04  4.54298e-03
       H -1.44524e-03 -3.62911e-03 -2.64599e-05
       O -5.41761e-04 -8.43215e-04  2.51649e-04
       H  7.42092e-03 -8.30623e-04 -5.90949e-03
       H  6.43741e-03 -4.58954e-03 -2.68978e-03
       O  2.81359e-04 -1.20611e-04 -1.07864e-04
       H  1.85115e-03  9.23673e-03  3.65301e-03
       H  9.16339e-04 -1.76989e-03  2.71646e-03
       O  2.46793e-04  7.72302e-05  9.03112e-04
       H -3.97649e-05 -2.49287e-03 -4.39046e-03
       H -3.72164e-03 -1.80027e-03 -1.56628e-03
       O  1.02530e-03  6.29573e-04 -1.23417e-03
       H  4.27066e-03  5.54956e-03  4.71401e-03
       H  2.30466e-03  1.07114e-03 -4.22273e-03
       O  2.02515e-04  9.13149e-04  1.04163e-03
       H  3.67170e-03 -2.77757e-03  1.08878e-03
       H -1.43520e-03  1.33877e-03  2.07325e-03
       O  1.05281e-04  1.26917e-03 -6.29071e-04
       H  1.37450e-04  2.72775e-03 -2.82379e-03
       H -1.51503e-03  3.58376e-03 -1.55801e-03
       O -6.08934e-04 -1.04837e-03  1.40860e-03
       H -7.14647e-04 -1.57014e-03  4.95726e-03
       H  2.16221e-03  6.95850e-04  5.05601e-05
       O  1.93891e-03 -1.13717e-04  1.12274e-03
       H -3.68725e-03  3.44262e-03 -5.84027e-04
       H -2.34891e-03 -6.56950e-03  1.19891e-03
       O  4.17134e-04  1.10606e-03 -2.25195e-04
       H  1.24844e-03  4.22978e-03  4.93657e-03