192
# CELL(abcABC):   16.99620    29.43815    27.67315    90.00000    90.00000    90.00000  Step:           0  Bead:      21 velocities{atomic_unit}  cell{atomic_unit}
       O -1.72425e-03 -1.10845e-04 -2.30590e-04
       H -2.93526e-03  2.70289e-03  1.40826e-03
       H  3.18514e-03 -4.86770e-03  1.85501e-03
       O  2.22832e-04  7.89454e-04 -1.95523e-04
       H -1.98939e-03 -3.21445e-03  5.04852e-03
       H  3.69543e-04 -5.06134e-04  3.33283e-03
       O -5.28390e-04 -1.26045e-03  9.58003e-04
       H -9.32934e-04 -3.17239e-03 -2.65811e-03
       H  5.09936e-04  2.37895e-03  4.25101e-03
       O  7.27878e-04  4.71067e-04 -1.17101e-04
       H -2.37540e-03 -2.44581e-03  1.84538e-03
       H -2.69708e-03 -2.21753e-03  1.13275e-02
       O  1.63700e-03 -1.53238e-03  5.34743e-04
       H -1.76824e-03  1.46277e-03  5.13379e-04
       H  4.50507e-03  1.27891e-03 -4.08040e-03
       O  3.72974e-04  4.03467e-04 -1.20374e-03
       H  3.28267e-03 -5.40109e-03  1.29192e-03
       H -1.03693e-03 -1.71427e-03 -2.81067e-03
       O -7.51764e-04  1.11155e-03  1.27528e-03
       H -3.57503e-03 -2.14064e-03 -1.33098e-03
       H -2.82247e-03 -5.19790e-03 -1.39599e-03
       O  9.61344e-04  6.39990e-04 -7.78369e-04
       H  6.51293e-03 -5.68647e-04 -1.12358e-03
       H -1.85958e-04 -2.06527e-03  6.80404e-03
       O  1.58576e-03 -4.61376e-04  3.02123e-04
       H  3.29565e-03 -6.74414e-03 -3.37493e-03
       H -5.50190e-03  2.23679e-03  7.88742e-03
       O -5.96840e-04  2.02026e-03  1.16043e-04
       H  4.00470e-05  4.57874e-03 -6.21549e-04
       H -4.86604e-04  1.30717e-03 -5.52912e-03
       O -2.02644e-04  8.14212e-04 -1.03853e-03
       H -3.87851e-03  2.10246e-03  2.14562e-03
       H  6.09318e-03  4.75190e-04  6.70803e-03
       O  1.23657e-03 -9.81735e-04  1.39157e-03
       H  1.53956e-03 -3.37206e-03 -8.80764e-04
       H -3.54892e-03  1.01678e-03  1.65247e-03
       O  1.44859e-03 -8.49135e-04 -9.57536e-04
       H  3.76502e-03 -2.14019e-03  4.45188e-04
       H  4.22563e-03  9.27443e-03  5.34024e-04
       O  9.52296e-05  1.27179e-03 -2.12107e-03
       H  6.64984e-04  1.16819e-03  2.96393e-03
       H  7.44789e-04  1.06151e-03 -3.27304e-04
       O -1.15660e-03  1.02062e-03 -4.92637e-04
       H -1.83792e-03  5.41425e-03  6.02575e-03
       H  6.04376e-03  3.43756e-03 -2.31446e-03
       O -3.77822e-04  5.45462e-04  1.31287e-05
       H  1.37001e-03 -4.44050e-03  8.89350e-04
       H -4.63867e-03  8.37473e-03 -4.58501e-04
       O -1.93306e-04  2.60707e-04 -6.65281e-04
       H -5.23084e-04 -2.53855e-03  1.24150e-03
       H -5.86951e-03 -3.78046e-03 -1.56023e-03
       O  1.22770e-03 -7.67674e-04 -9.83480e-04
       H  9.97502e-04  5.71149e-05 -3.30695e-03
       H  4.40448e-03 -2.18763e-03  1.94589e-03
       O  3.31695e-04  1.90090e-04  1.00723e-03
       H  4.27791e-03  8.48678e-04  5.14815e-04
       H  2.65699e-03 -1.68823e-03  3.12508e-03
       O  4.38697e-05 -8.59885e-04  8.03455e-05
       H -5.84172e-03 -1.69907e-03  5.02899e-03
       H  3.53316e-03  8.73605e-03  1.20011e-03
       O  1.23731e-04  7.49076e-04  2.28894e-03
       H  5.12087e-03 -4.52185e-04  1.70754e-03
       H  8.58570e-04  9.96108e-03 -6.14144e-03
       O -8.68680e-04 -7.49511e-05 -3.48633e-04
       H -5.42617e-03 -1.55568e-03 -4.02576e-03
       H -6.64510e-03  5.94876e-03  2.79793e-03
       O  1.93095e-04 -5.59467e-04  6.67648e-04
       H  1.86980e-03  3.91559e-04 -4.51155e-03
       H  9.94852e-03 -3.05682e-03  4.53575e-03
       O  5.96301e-05 -8.59261e-04 -4.60928e-04
       H  3.16692e-03  5.29945e-03 -9.03269e-04
       H  3.10678e-03  2.86991e-03 -6.04502e-03
       O -2.43811e-05 -6.35987e-04 -4.45457e-04
       H -4.63074e-04 -3.18234e-05 -9.10695e-03
       H -2.54177e-03 -2.97329e-03  4.90533e-03
       O  9.30718e-04 -6.42703e-05  1.11387e-03
       H -3.69753e-03 -3.30062e-03  4.30073e-03
       H -2.61595e-03  5.88080e-04 -3.41688e-03
       O -9.33732e-04 -1.32249e-03  5.51699e-04
       H -5.46839e-03  2.52439e-03 -6.00689e-03
       H  4.84826e-03  8.04355e-04  1.23337e-03
       O -2.08886e-04 -8.11829e-04  6.01034e-04
       H -6.96375e-03  3.69782e-03  1.06073e-03
       H  6.42330e-03  1.77786e-03 -3.09841e-03
       O -6.27668e-04 -2.12178e-04  4.07201e-04
       H -3.57912e-03 -9.78834e-04  5.23431e-03
       H -1.47448e-04  2.07270e-03 -6.88018e-03
       O -1.21496e-03  4.55068e-04  1.57241e-03
       H  3.37022e-04  1.05178e-02  2.07870e-03
       H -1.45366e-03  3.15149e-04 -1.46265e-04
       O  2.55314e-03 -7.21003e-04  3.05667e-04
       H  5.88109e-03  9.62031e-03 -7.11682e-04
       H  2.76541e-03 -1.54051e-03 -3.86017e-04
       O -5.48197e-04  2.02287e-03  2.43135e-04
       H -7.14159e-03 -5.54142e-03  7.32572e-04
       H  3.22900e-03 -2.62180e-03  6.02081e-03
       O -7.46287e-04  2.21696e-03 -2.53701e-04
       H -4.46198e-03  5.86465e-03 -9.53972e-03
       H  1.24292e-03 -2.84167e-03 -5.32163e-03
       O  8.46740e-04 -9.87095e-05 -6.12989e-04
       H  5.02883e-03 -5.44453e-04  2.38438e-04
       H -2.26516e-03 -2.12585e-03  9.64468e-04
       O  1.31408e-03 -7.56878e-04 -1.14116e-03
       H -8.41915e-04 -2.52740e-03  3.96713e-04
       H -3.23298e-03  2.96090e-03 -6.16461e-03
       O  7.48304e-04 -3.27560e-04 -2.87140e-04
       H -2.03332e-03  9.07941e-04  2.24343e-03
       H  2.23043e-03  2.38541e-03 -6.24600e-04
       O  8.17413e-04  1.13887e-03  8.06721e-04
       H -7.92709e-04 -2.21611e-03  2.19261e-03
       H  6.89388e-04  6.39689e-03 -3.01670e-03
       O -7.20791e-04  6.45061e-05  2.96516e-04
       H  2.85045e-03 -1.24676e-03 -5.82192e-04
       H -6.44406e-03  7.06759e-03 -1.30167e-03
       O  1.81504e-03 -4.57009e-04 -1.10917e-05
       H -4.52635e-03  2.79281e-03  2.29036e-03
       H  1.78603e-03 -4.67030e-03 -1.29523e-03
       O  8.05103e-04  4.79929e-04 -8.49198e-04
       H -6.30800e-03 -1.54182e-03 -1.68762e-03
       H  1.94670e-03 -1.64256e-04 -9.66129e-04
       O  2.91825e-05  1.21800e-03 -7.92683e-04
       H  7.40065e-03  4.45623e-03  2.24652e-03
       H -9.92742e-04  4.53484e-04 -1.90759e-03
       O -1.01785e-04  2.75103e-04  1.32572e-05
       H  1.79285e-03  2.15234e-03 -1.43237e-03
       H -4.85293e-03  1.61177e-03 -2.59341e-05
       O -3.74046e-04  1.45586e-03 -1.74582e-04
       H  2.65091e-03  2.07859e-03 -8.01912e-04
       H  4.08741e-03  3.83285e-03  5.36352e-03
       O  1.37027e-03 -2.51970e-04  7.06621e-04
       H  6.17955e-04 -6.94136e-03  5.40648e-03
       H  7.57394e-03 -1.84735e-03 -4.25789e-04
       O  3.67106e-04  1.55785e-03 -5.01645e-04
       H -3.67144e-04 -7.80184e-03  7.97988e-04
       H  5.76633e-03  2.68779e-03  2.51364e-03
       O  2.64586e-03  1.17689e-04 -1.83495e-04
       H -9.01266e-03 -9.81491e-03 -5.17882e-03
       H -2.50864e-03 -3.45564e-03  6.35976e-03
       O -7.38214e-04 -9.40673e-04  3.24854e-04
       H -2.88033e-03 -9.65738e-05  6.27407e-03
       H  7.10008e-03 -3.17410e-03  2.11764e-03
       O -4.44733e-04  1.13545e-03  4.05589e-04
       H  8.53387e-04 -5.01774e-03 -5.80908e-04
       H -2.19305e-03  1.66596e-03  1.25534e-03
       O  6.72962e-04  7.95593e-04  3.20724e-04
       H  4.45801e-03  1.67557e-03 -2.82293e-03
       H  8.04174e-04 -1.09904e-03 -5.72461e-04
       O -1.66790e-05  3.79856e-04 -2.77295e-04
       H -4.85580e-03  2.44828e-04  5.37002e-03
       H  3.33707e-03 -2.73947e-04  9.75418e-03
       O -4.66686e-04 -1.14313e-03  3.19397e-04
       H  2.36303e-03 -2.44562e-03 -3.78065e-03
       H -3.98185e-03  3.91305e-03  3.35212e-03
       O  4.61160e-04  1.57707e-03 -1.11779e-04
       H -8.45565e-03 -4.11757e-03 -8.75361e-04
       H  4.32953e-03  1.07180e-03  7.80224e-03
       O  7.35639e-04  3.67427e-04  2.30350e-04
       H  1.51466e-03 -2.81625e-03 -1.57469e-03
       H  1.93187e-04  3.57984e-04  5.03935e-04
       O  5.33610e-04 -8.21261e-04  4.89601e-05
       H -2.52297e-03 -2.44567e-03  1.18316e-03
       H  1.96701e-03 -2.64246e-03 -1.13457e-03
       O -2.64270e-04  1.67940e-03 -1.55487e-03
       H  2.16274e-04  5.33610e-03  2.35287e-03
       H  7.44780e-03  4.59470e-03 -1.90441e-03
       O -8.75926e-04 -9.12110e-04 -1.76672e-03
       H -7.70167e-04  3.69283e-03  3.18447e-03
       H -1.10270e-02  2.25997e-03 -8.54587e-04
       O -8.26921e-04  8.93618e-05  6.97221e-04
       H -2.37924e-03  1.18833e-03 -6.42661e-04
       H -2.58475e-03 -2.90929e-03  3.14872e-04
       O -4.64716e-04  2.03409e-04 -7.95673e-04
       H -2.35280e-03  8.08590e-03  3.18750e-03
       H  1.40926e-03 -7.46130e-04 -4.04872e-03
       O -1.09858e-03 -1.11596e-04 -1.69840e-04
       H  7.36116e-03 -8.05473e-03  6.46642e-03
       H -5.74360e-04 -3.56912e-03  4.17136e-04
       O -7.02603e-04  8.52855e-07 -3.20406e-04
       H  4.78955e-03 -5.66438e-03 -1.83115e-03
       H -3.60493e-03 -1.08121e-03  3.28290e-03
       O -8.43480e-04 -6.03814e-04 -3.74625e-04
       H -4.94810e-03 -5.00734e-03 -9.61733e-03
       H  4.32097e-03 -1.40489e-03  2.23186e-03
       O -1.24721e-03  1.77161e-03 -1.43117e-03
       H -4.97765e-03 -7.12783e-04 -2.56119e-03
       H  3.91683e-03 -9.19133e-05 -3.49546e-03
       O -8.98850e-05  1.54015e-03  5.78619e-04
       H -5.50338e-05 -3.55769e-03  4.73901e-03
       H  2.27781e-03 -6.90519e-03 -5.16570e-03
       O  1.25710e-04 -5.70283e-04  8.98159e-05
       H -1.49166e-03  4.98674e-04 -1.19942e-03
       H -5.98603e-03 -2.28666e-04 -9.09321e-04
192
# CELL(abcABC):   16.99620    29.43815    27.67315    90.00000    90.00000    90.00000  Step:          10  Bead:      21 velocities{atomic_unit}  cell{atomic_unit}
       O -3.69491e-04 -5.18627e-04  4.76554e-04
       H  4.20954e-03 -1.07693e-03  3.09976e-03
       H  1.19975e-03  5.16086e-04 -3.03762e-03
       O -8.42461e-04  4.70587e-04  7.69528e-04
       H -5.14335e-03 -1.92529e-03 -4.43609e-03
       H -2.04267e-03 -8.28888e-04 -2.31524e-04
       O  2.64996e-04 -2.16002e-04  9.09128e-04
       H -3.99487e-03  1.99909e-03  4.62252e-03
       H -3.45786e-03  1.58914e-03 -2.74474e-03
       O  9.85372e-05 -4.27776e-04  9.31928e-04
       H -5.63986e-04  5.49626e-03  5.31726e-03
       H -3.82066e-03  8.27733e-04 -3.19419e-03
       O  9.17111e-04  1.15780e-03 -5.87296e-04
       H -2.09030e-03  4.33181e-03 -7.04281e-03
       H -2.40313e-03 -8.54192e-05 -3.38047e-03
       O -8.82323e-04 -1.16553e-04 -1.75038e-03
       H  1.38842e-03 -5.68629e-03  2.96724e-03
       H  6.32690e-03  1.05012e-04  1.65571e-03
       O -9.14916e-04 -3.77312e-04 -3.69496e-04
       H  5.39109e-03  3.24195e-03 -3.51589e-03
       H -9.02778e-03 -7.99365e-04 -5.16756e-03
       O -7.20575e-04 -1.14827e-03 -6.42653e-04
       H  1.69013e-04 -1.41303e-03 -1.00418e-03
       H -1.17858e-03 -3.12086e-03 -5.51024e-03
       O -1.28417e-03  1.97398e-03 -2.10153e-04
       H  5.02647e-04  2.78283e-03 -2.15150e-03
       H -9.14319e-03 -3.74829e-03 -4.86494e-03
       O  5.22759e-04 -3.64983e-04 -9.62190e-04
       H  2.73261e-03 -7.25313e-03 -1.72863e-03
       H -1.00649e-04 -5.45742e-03  2.89771e-03
       O  2.77115e-04 -1.84049e-03  1.12812e-03
       H  7.85384e-03 -3.53147e-03  3.39485e-03
       H -4.98617e-03  3.51329e-03  4.33895e-03
       O -7.03802e-05 -6.03635e-04  2.68435e-03
       H -7.30699e-04 -7.18957e-04 -5.09392e-03
       H -4.95508e-04  3.14019e-04 -2.39232e-03
       O  1.05814e-03 -2.57968e-04 -7.02671e-05
       H -1.59532e-03  6.56528e-04  2.87736e-03
       H -4.09247e-03  1.49747e-03  8.80503e-04
       O  7.12126e-04 -1.14909e-03  2.72737e-04
       H  1.21628e-03 -5.77416e-03 -1.68664e-04
       H -5.41148e-04 -3.26444e-03 -5.34216e-03
       O  1.05232e-03 -3.04568e-04  1.74580e-04
       H -8.37426e-04  8.54605e-04 -2.58596e-03
       H  9.25313e-03  2.92387e-03 -3.87427e-03
       O  3.86069e-04  9.81329e-04  4.26122e-04
       H  1.05377e-03 -4.55078e-03 -5.79534e-03
       H  6.37262e-04  1.11084e-03 -1.08241e-03
       O  6.88545e-04 -2.19819e-04  8.74168e-04
       H  2.95366e-03  7.18191e-04 -1.00621e-04
       H  3.44603e-03 -8.81657e-04 -2.64229e-03
       O  1.23051e-03  1.23507e-03  7.79094e-04
       H  3.47878e-04  2.88775e-03  4.17699e-03
       H -1.65524e-03 -6.24353e-03  9.64301e-05
       O -7.64116e-04  5.48048e-04 -6.84639e-04
       H -2.39055e-03  3.81602e-04 -2.12360e-04
       H -3.74796e-03  1.99041e-03 -1.67252e-03
       O -1.09848e-03  3.66515e-04  1.62057e-03
       H -1.01492e-03  2.22492e-03  4.17515e-03
       H -3.50677e-03 -1.26733e-03  1.70065e-03
       O  5.22524e-04  7.78564e-04 -1.19048e-03
       H -1.35803e-03 -2.83705e-03  7.16211e-04
       H  3.65397e-03  4.68626e-03  3.09493e-03
       O -1.26026e-03  7.44524e-04 -1.38462e-03
       H  1.86935e-03 -4.35877e-03 -1.94639e-03
       H  3.47480e-03  2.78043e-03 -3.40748e-03
       O  1.41148e-04 -2.91214e-04  4.61552e-04
       H -1.84232e-03  4.33984e-03  2.21223e-03
       H -3.71791e-03 -2.03221e-03  2.87281e-03
       O  6.05198e-04 -2.72542e-05 -6.90666e-04
       H -2.26494e-03 -5.92871e-03  2.95768e-03
       H -1.57736e-03 -1.05824e-03  2.11849e-03
       O -1.66920e-04  1.12283e-03 -1.11075e-03
       H -1.21431e-03 -2.22078e-03 -1.18099e-03
       H  5.23659e-03 -3.57345e-03 -4.87423e-05
       O  1.09547e-04 -1.36002e-04  1.25037e-03
       H  6.96144e-04 -2.43715e-03  3.11667e-03
       H -1.76121e-03 -6.12208e-03 -1.91406e-03
       O  3.21705e-04  5.74731e-04 -5.85088e-04
       H -2.40341e-03 -1.44786e-03 -2.54655e-03
       H -1.52464e-03 -1.00077e-03 -3.83093e-03
       O  7.69187e-04  8.28785e-04  1.22993e-03
       H  3.27067e-03 -1.80922e-03 -3.36970e-03
       H  4.44944e-03 -2.33374e-03  1.14511e-03
       O -1.03931e-04  3.45593e-04 -8.30693e-04
       H -1.82435e-03 -1.30452e-03 -3.75014e-03
       H -2.09516e-03 -8.12520e-03 -1.71490e-03
       O -8.24437e-04 -9.09985e-04 -1.21735e-04
       H -5.74499e-05 -8.76898e-06 -1.03021e-03
       H -1.29469e-03 -1.69671e-03 -1.95416e-03
       O  1.14928e-03 -2.56882e-04  1.46463e-03
       H  1.25121e-03  1.19385e-03  1.45119e-04
       H -1.29367e-03  1.96417e-03 -1.65514e-03
       O  3.70917e-04 -8.24781e-04 -1.55775e-04
       H -1.13719e-03 -3.11756e-03 -4.04760e-04
       H -9.39699e-04  1.45803e-03 -5.37101e-03
       O -4.04789e-04 -1.37556e-04  6.86344e-04
       H -3.23666e-03  4.98269e-03 -2.52713e-03
       H -4.45813e-03  1.92797e-03  8.46453e-03
       O -1.66810e-03 -2.61032e-04 -5.28874e-04
       H  3.94782e-04 -1.49044e-03 -2.76642e-03
       H -4.64021e-03  6.75914e-04  3.05464e-03
       O -4.15173e-04  1.87748e-03 -5.23649e-04
       H  4.16128e-03  7.46715e-04 -8.75786e-04
       H  2.87307e-04  5.22041e-04 -7.36072e-04
       O -1.85767e-04 -2.09585e-03 -1.36225e-03
       H -1.68106e-03 -3.84799e-03 -1.51872e-03
       H -7.19095e-04  3.51311e-03  2.57390e-03
       O -2.00817e-03  6.43006e-05 -2.48596e-04
       H -1.03530e-03 -4.39079e-04 -6.39852e-03
       H  3.20537e-03  3.78559e-03 -1.79077e-03
       O -1.63548e-04 -6.73780e-04 -5.75383e-04
       H -2.03447e-03  8.26954e-03 -3.12673e-03
       H  2.39975e-03 -1.02746e-03 -1.90746e-04
       O  1.75293e-03 -8.84886e-05  1.33389e-03
       H  2.74376e-04  3.91827e-03 -4.83824e-03
       H  4.14220e-03 -3.67461e-03 -8.61094e-03
       O  8.38854e-04 -3.75975e-04 -3.40686e-04
       H  5.91773e-04  7.72187e-04 -6.77629e-05
       H -8.02100e-03  6.25934e-03 -2.39023e-03
       O -1.77492e-03  1.14875e-03  1.01643e-04
       H -2.81182e-03 -1.06208e-03 -9.64285e-03
       H -3.28614e-03  1.94025e-03  8.23020e-04
       O -5.24081e-04 -1.98688e-04 -1.62594e-03
       H -3.40281e-03  1.00376e-04 -7.99283e-04
       H  1.61571e-03  2.20667e-03 -4.14714e-03
       O -7.28091e-04 -1.04837e-03  9.01618e-04
       H -3.61300e-03  1.28076e-03 -2.62584e-03
       H  5.25644e-03  1.19710e-03 -4.88997e-03
       O -3.26160e-04 -2.39464e-04 -5.95976e-04
       H -4.17211e-03 -7.09291e-04  1.71570e-03
       H  5.17593e-03  1.99063e-03 -5.22670e-03
       O -6.62266e-04  9.65202e-04 -8.43741e-05
       H -5.30624e-03 -7.07563e-03  3.17242e-03
       H  2.18623e-03  7.78956e-03  1.43068e-05
       O  1.53560e-03  1.36714e-04  1.09451e-03
       H -4.02189e-03  4.42667e-04  4.04551e-03
       H -6.93053e-03  1.45582e-03 -2.28120e-03
       O  9.85503e-04  4.32356e-04 -1.42126e-05
       H -9.73695e-04  1.90942e-03 -1.67374e-03
       H -4.28344e-03  2.18890e-03  1.47894e-03
       O -8.08810e-05 -7.64808e-04  5.92271e-04
       H -1.79302e-03 -3.07715e-03 -1.69142e-03
       H  2.39280e-03 -6.52282e-03  3.96151e-03
       O -1.15762e-03  4.48127e-04  8.33946e-04
       H  1.40744e-03 -1.76834e-03 -1.84691e-03
       H -4.22721e-04 -1.03151e-03  2.61660e-03
       O -1.71359e-03 -7.30389e-04  8.07540e-04
       H -2.38011e-03 -4.49026e-03  9.53164e-04
       H -3.97876e-03 -5.28486e-03 -8.19619e-04
       O -8.22837e-04 -4.21370e-04 -1.96958e-04
       H  2.69141e-03 -4.78769e-03 -7.32778e-04
       H -6.01398e-03  2.07229e-03  5.13942e-03
       O -1.21555e-03  2.84841e-04  6.94383e-04
       H -3.00865e-03 -4.23762e-05  1.08234e-03
       H  1.43699e-03  7.21365e-04 -4.61985e-03
       O  1.39281e-05  9.62417e-04  1.00589e-04
       H -2.45722e-03 -2.04813e-03 -5.81373e-03
       H  2.77804e-04 -6.83502e-03  1.73821e-03
       O  1.23083e-03  1.06545e-04 -8.48111e-04
       H -2.68479e-03 -3.64412e-04  4.41472e-03
       H  3.06086e-03  1.69778e-03  1.52570e-03
       O -1.44498e-03 -1.18110e-03  1.29641e-03
       H  1.33793e-03 -1.26155e-03  4.13145e-03
       H -1.72992e-03  1.77213e-03 -2.58173e-03
       O -5.58431e-04 -1.33074e-03 -9.74148e-04
       H  6.55714e-03  3.19061e-03 -6.87471e-03
       H -9.64906e-05  5.23274e-03 -3.24898e-03
       O -2.07152e-04 -3.19270e-04  8.81722e-04
       H -1.05410e-03 -2.38982e-03  4.97829e-04
       H  1.84488e-03 -9.62318e-04 -4.07916e-03
       O -7.31009e-04  4.85589e-04  2.18142e-04
       H  5.18415e-05  3.47076e-03  3.46520e-04
       H  4.33184e-03 -1.33456e-03  2.54681e-03
       O  6.26300e-04 -2.98524e-04 -8.06924e-05
       H  4.57513e-04  5.22509e-04 -2.92584e-03
       H -2.91507e-03  5.38040e-03  4.14797e-03
       O  1.05697e-03  5.23919e-05 -2.91342e-04
       H -2.40682e-03 -2.08999e-04  1.22956e-04
       H  1.52018e-03  2.61446e-03  3.15219e-04
       O -6.03120e-04 -6.46568e-04 -3.20653e-05
       H  2.13847e-03 -2.92477e-04 -3.85578e-03
       H  7.24035e-04 -5.66892e-03 -2.93452e-03
       O -1.57146e-03 -7.79638e-04  9.53438e-04
       H -3.72172e-03  5.07765e-03 -3.21270e-03
       H  1.23279e-03  1.14204e-03 -2.49162e-03
       O  2.06583e-03  1.34056e-03 -1.76487e-03
       H -1.82874e-03 -4.48230e-03  2.16378e-03
       H -1.58126e-03  1.20568e-04  5.26296e-03
       O -9.21310e-04 -2.56582e-04  7.69905e-04
       H  1.68797e-03  4.31907e-03 -4.74230e-03
       H -1.52605e-03  4.95024e-03 -4.89081e-03
192
# CELL(abcABC):   16.99620    29.43815    27.67315    90.00000    90.00000    90.00000  Step:          20  Bead:      21 velocities{atomic_unit}  cell{atomic_unit}
       O  4.52733e-04  5.57114e-04  1.92162e-03
       H  4.67184e-04  9.78905e-04 -6.51204e-03
       H  1.30928e-03 -7.13500e-04 -3.06819e-03
       O  2.36616e-03 -6.12524e-04  7.14193e-04
       H  7.94620e-04  1.44764e-03  3.42612e-03
       H -2.14498e-03  1.29031e-03  1.82071e-03
       O -1.14871e-04  1.98315e-03  1.70803e-04
       H -1.41789e-03  8.82853e-04  3.32755e-03
       H  2.86181e-03 -3.13903e-03  1.24754e-03
       O  2.86369e-04 -3.23977e-04 -6.16176e-04
       H  1.54991e-03  6.36299e-03  2.09410e-03
       H  7.39749e-04  2.39344e-03 -6.99522e-03
       O -2.40480e-03 -8.48948e-04 -7.37171e-04
       H -1.80194e-04 -1.38271e-03 -2.28695e-03
       H  8.04794e-03  4.24051e-03  5.99341e-03
       O  8.05901e-04 -4.57919e-04 -6.87872e-04
       H -5.19713e-03 -3.23188e-03  1.14741e-03
       H -1.51881e-03  2.05264e-03  7.09535e-03
       O  7.48429e-04 -1.55161e-04 -1.58486e-04
       H -3.10798e-03  8.38446e-04 -9.25518e-04
       H  5.48193e-03 -1.31599e-03  1.67816e-03
       O  1.31979e-04 -1.12237e-04 -9.44973e-05
       H -3.08531e-04  1.05291e-03  2.36565e-03
       H -5.68414e-03 -2.83659e-03 -7.56454e-04
       O -3.14100e-04  8.61239e-05 -1.25195e-03
       H -2.97132e-05 -6.33234e-05  5.11489e-03
       H -3.97550e-03 -2.66784e-03  7.13628e-04
       O -1.49682e-03  1.42569e-03  1.78194e-03
       H -3.28483e-03 -7.56641e-03  8.91323e-04
       H -7.34151e-04  5.89407e-03 -3.90166e-03
       O  2.86360e-04  5.21170e-04  1.14674e-03
       H  9.13187e-04 -3.56136e-03  2.30709e-03
       H  1.97762e-03 -8.48110e-04 -5.11188e-04
       O  2.91305e-05  6.00162e-04 -1.60425e-03
       H  2.09273e-03 -2.76908e-03  1.37377e-03
       H -6.98910e-03  2.40554e-03 -2.79593e-03
       O -1.06712e-03  1.09384e-03  3.70782e-04
       H  1.45485e-03  7.60904e-03 -5.28976e-03
       H -2.03299e-03 -1.98439e-03  8.15798e-03
       O -1.19032e-03  9.55093e-04  1.96172e-04
       H -4.64354e-03 -2.93574e-03 -6.47722e-03
       H  6.91821e-03 -4.95196e-04 -8.32972e-05
       O -5.89262e-04  1.08792e-03  5.51607e-04
       H  4.44760e-03  2.81323e-03 -3.54884e-04
       H -4.47519e-03 -2.46820e-03  4.44329e-03
       O  1.71655e-03  3.91479e-04 -4.27225e-04
       H  3.95881e-03 -2.69773e-03  1.32610e-03
       H -1.90382e-03 -1.74859e-03 -2.04478e-03
       O -3.45856e-04  1.15482e-03 -3.31676e-04
       H -2.16629e-03  3.18956e-03  9.47023e-04
       H -4.01301e-03 -1.18187e-03  1.12180e-03
       O  8.52968e-04  7.77511e-04 -1.26976e-03
       H  2.48035e-03  3.11869e-03 -5.36201e-04
       H -8.78063e-04  3.59311e-03  1.31829e-03
       O -6.72311e-04  1.47234e-04 -1.20870e-03
       H -1.85806e-03  1.83716e-03  1.14487e-04
       H -4.00799e-03 -6.22251e-03 -3.27823e-05
       O -6.22973e-04 -1.33129e-03  8.05536e-04
       H  2.67220e-03 -1.81012e-03  3.72732e-03
       H  6.83094e-03 -3.16990e-03 -2.97977e-03
       O  3.87555e-05  2.75715e-04 -2.01908e-04
       H -5.77384e-04 -1.10611e-03  1.82791e-05
       H -6.95050e-04  1.04374e-03  5.02388e-04
       O -4.92979e-04 -1.16331e-03 -8.12085e-04
       H  3.15306e-03  5.99302e-03 -3.69980e-03
       H  4.39546e-03  1.05426e-03 -1.42868e-03
       O  8.06338e-04  5.44414e-04 -1.01077e-03
       H  2.45998e-03 -4.85557e-03  1.74428e-03
       H -7.00221e-04  1.61074e-03  5.83993e-03
       O  3.34793e-04  2.02854e-03 -2.10733e-04
       H -1.46167e-03  6.48202e-04 -5.00840e-03
       H  1.03085e-03 -4.08662e-04 -1.07125e-03
       O -5.18134e-04 -2.03275e-03  1.16307e-03
       H  2.88845e-03  1.41823e-03 -3.88868e-03
       H -9.75117e-04 -1.18042e-03  3.16852e-04
       O  2.14578e-04 -3.82105e-04 -1.61420e-03
       H -2.73691e-03 -3.34372e-03  4.48560e-03
       H  4.78391e-03  1.52082e-03  3.98408e-03
       O  1.22526e-03  1.58395e-03  7.90686e-05
       H  2.80577e-03 -1.40713e-03 -3.10791e-03
       H -8.40413e-04 -1.92567e-04  1.93536e-03
       O  1.01235e-04 -8.63211e-05 -1.72503e-04
       H  8.52930e-03  1.92005e-03  8.77012e-04
       H  3.25458e-03  5.74954e-03  1.67875e-03
       O  8.39345e-05 -1.30287e-03  3.40821e-04
       H  1.92659e-03 -5.31419e-04 -7.59296e-04
       H -2.04539e-03 -5.53198e-03 -3.52045e-03
       O  3.29441e-04  2.23669e-03 -1.39367e-03
       H  5.98955e-03  1.83079e-03  2.07879e-03
       H -7.12319e-03 -2.45717e-03  1.52547e-03
       O -1.11983e-03 -2.58825e-04 -6.82772e-05
       H  9.84439e-04 -2.84970e-03  2.96956e-03
       H -3.23641e-03 -5.38430e-03  4.71231e-03
       O -4.69844e-04  1.55117e-03 -8.02128e-04
       H -2.14854e-03  3.90923e-03  8.30264e-04
       H  7.82291e-04  2.76319e-03 -8.26374e-05
       O  2.50470e-04  1.78700e-03 -1.03633e-03
       H  1.59675e-04  8.52120e-03 -3.79607e-03
       H  1.12836e-03  2.70745e-03  1.00606e-03
       O  1.01274e-03 -1.23894e-03 -1.37713e-03
       H -2.71974e-03 -6.55151e-03 -5.38837e-03
       H  1.62740e-03 -2.14889e-03 -3.28593e-03
       O  6.87892e-04 -8.31702e-04  4.34449e-05
       H  5.76928e-03 -1.57882e-03  1.89440e-03
       H -3.10909e-03  2.13199e-03  3.53572e-04
       O  7.29876e-05  1.49772e-04 -1.69318e-03
       H  5.15132e-03 -1.40324e-03  3.20233e-03
       H -9.49027e-04  2.66813e-03 -2.33385e-03
       O -2.52112e-04  9.38075e-04 -3.46873e-04
       H  6.89089e-03  2.98892e-03 -4.23137e-03
       H -1.58271e-04  3.96692e-03 -4.69737e-03
       O  3.03653e-04 -2.25149e-05 -5.51249e-04
       H  4.87344e-03 -3.68391e-03 -5.64071e-04
       H -3.54200e-04 -2.30985e-03 -1.91981e-03
       O -1.13006e-05  6.86595e-04 -4.10064e-04
       H -6.28720e-03 -1.75192e-03 -2.85708e-03
       H -8.60073e-03  4.75734e-03  2.31062e-04
       O -1.56928e-04 -8.96797e-04  3.42705e-05
       H -4.98161e-03 -8.83325e-03  5.41635e-03
       H  6.70929e-04 -2.69641e-03  3.11782e-03
       O  1.02391e-03  8.96211e-04 -3.70953e-04
       H  1.30181e-03 -5.99092e-04 -8.64798e-03
       H -3.14696e-03 -1.12555e-03  5.02737e-03
       O -2.25874e-03 -1.22087e-03 -5.46436e-04
       H  7.30446e-03 -5.60415e-03 -1.29573e-03
       H  6.19419e-04  1.28357e-04  7.26738e-03
       O  3.95218e-04  7.15052e-04 -7.97113e-04
       H -6.72775e-03  1.00149e-03 -8.47365e-04
       H -1.07939e-02 -3.86494e-04  1.55245e-03
       O -1.25691e-03  1.22019e-03  8.29517e-04
       H -5.23841e-03  4.10577e-03 -1.09764e-03
       H -5.87589e-03  7.97268e-05  4.16610e-03
       O -5.06559e-05 -2.09034e-04 -3.71167e-04
       H -1.19964e-03 -1.13347e-04  1.70802e-03
       H  1.03066e-03  3.28461e-03  1.41716e-03
       O -1.27833e-03 -1.50039e-03  2.81168e-04
       H  2.65418e-03 -1.39310e-05  2.97064e-03
       H  4.20090e-03  3.95593e-03 -1.54277e-03
       O -4.96067e-04 -8.03604e-04 -1.96048e-04
       H  6.21577e-03 -5.29407e-03  3.94923e-03
       H -2.37771e-04  3.44302e-03 -2.00536e-03
       O  7.50858e-04  1.23769e-03 -1.64203e-04
       H -4.34742e-03  9.71268e-04 -5.66371e-03
       H -4.40713e-03 -2.29953e-03 -2.78515e-03
       O  3.49017e-04  7.58346e-04  1.34860e-03
       H  3.11670e-03 -2.51829e-03 -7.14338e-03
       H -6.67160e-04 -6.69926e-03 -4.72167e-03
       O -2.29978e-03 -6.20321e-04 -1.45779e-03
       H  8.46125e-05 -4.60295e-04  9.53169e-04
       H  3.01899e-03  2.46004e-03  2.25071e-04
       O -1.94542e-04 -7.06904e-04  8.71111e-05
       H -5.25981e-03  4.98365e-03  5.49210e-03
       H  1.30158e-03  2.98213e-03  2.07297e-03
       O  3.11033e-04 -3.85578e-04 -8.78918e-04
       H  2.96701e-03  9.90506e-04  7.79334e-04
       H  1.36986e-02  9.41351e-04  5.99733e-03
       O -1.32833e-03 -4.50411e-04 -1.10475e-03
       H  1.47739e-03  3.38276e-03 -1.49791e-03
       H  2.34399e-04 -1.08556e-03  3.36014e-03
       O -8.60309e-04 -8.05217e-04 -5.52957e-05
       H -2.88032e-04  5.63152e-04  3.81201e-03
       H -6.56812e-04  3.50299e-04  1.00377e-04
       O  6.76096e-05 -6.00683e-04  7.71516e-04
       H  1.15126e-03 -4.62091e-03 -5.61627e-03
       H -4.41157e-03  1.62442e-03 -2.70420e-03
       O -1.57170e-05  1.15387e-04  4.13989e-04
       H  7.53897e-03 -4.04861e-04  4.15335e-03
       H -2.80658e-03  1.39112e-03  4.55046e-03
       O  8.67022e-04 -8.41683e-05 -4.55488e-04
       H  7.03801e-04  5.71552e-04 -1.51047e-03
       H  2.91455e-03 -5.24723e-03  1.01008e-02
       O -6.34634e-04  1.32990e-03 -1.65275e-03
       H -1.56983e-03 -5.34627e-05  6.71270e-04
       H -8.38295e-03 -7.20669e-04 -3.48208e-03
       O  2.49769e-04  1.41333e-03 -1.07911e-03
       H  2.68099e-03 -1.01093e-03  1.82327e-03
       H  3.11704e-03  6.71209e-04 -2.04381e-04
       O -1.94633e-04 -1.48825e-04  4.79002e-04
       H  2.38357e-03 -3.24237e-03  5.87683e-04
       H -3.57576e-04 -3.66298e-03 -2.91475e-03
       O -5.62922e-04 -8.29522e-04  2.11595e-04
       H -1.06737e-03 -8.97501e-03  5.17854e-03
       H -3.34997e-03 -2.81103e-03 -2.87303e-03
       O -1.68834e-03  6.55260e-04 -4.12147e-04
       H  1.60285e-03  1.07761e-03  9.51244e-03
       H -3.29087e-03  6.54121e-05 -4.25091e-04
       O  2.26622e-04  2.32665e-04  8.20130e-04
       H  1.70031e-03  2.54064e-03 -5.99216e-03
       H -7.42290e-04 -2.73947e-03 -5.34261e-03
       O -1.16002e-03 -1.17188e-03  8.73496e-04
       H -1.59194e-03 -3.47234e-03  6.65191e-03
       H -7.22926e-03 -5.60341e-03  2.43881e-03
192
# CELL(abcABC):   16.99620    29.43815    27.67315    90.00000    90.00000    90.00000  Step:          30  Bead:      21 velocities{atomic_unit}  cell{atomic_unit}
       O  1.78196e-04 -2.21989e-03  4.93319e-04
       H  1.67264e-04  2.83447e-03  3.60533e-03
       H  5.52326e-03  2.77073e-03 -1.52959e-04
       O  1.40884e-03  1.05266e-03  8.67305e-04
       H -9.29687e-03  1.56258e-03  4.88111e-03
       H -6.64000e-04  1.74610e-03 -6.66884e-03
       O  9.17292e-04  1.26922e-04 -2.37309e-04
       H -4.80492e-03 -7.31023e-04 -2.44049e-03
       H -6.84034e-04 -3.51750e-03  2.23189e-03
       O  7.95234e-04 -5.16106e-04  3.91380e-04
       H  2.34140e-03 -5.78425e-03 -2.06853e-04
       H  3.49497e-03  3.28799e-03 -3.34481e-03
       O  5.52660e-04  1.26681e-03  5.71120e-04
       H  8.71406e-04  1.13235e-03 -6.34872e-03
       H  1.17770e-03 -2.41055e-03  6.03306e-03
       O  3.67153e-04 -1.02195e-03 -4.06679e-05
       H -4.80748e-04  5.86755e-03 -4.39154e-03
       H  2.98010e-05  3.87142e-03 -1.35062e-04
       O  3.12837e-04  9.79584e-04  9.58524e-05
       H  1.40894e-03  1.56041e-03  3.65317e-03
       H  6.09015e-03  5.10875e-04  8.57737e-04
       O  1.92057e-03 -1.10240e-05  1.01663e-03
       H  3.35880e-03  1.82759e-03  4.10231e-04
       H -4.62854e-04 -9.16883e-04 -6.27707e-03
       O -5.57316e-04  1.34648e-04  5.62112e-04
       H -1.33102e-03 -3.68432e-03  1.93556e-03
       H -1.17302e-03  7.29969e-05 -1.17649e-03
       O  8.93820e-04 -4.23407e-04  1.63615e-03
       H -2.43731e-03  6.08924e-04  1.47235e-03
       H  2.05807e-03  1.02896e-03  1.14213e-03
       O -1.11448e-03 -4.45976e-04 -5.73772e-04
       H -4.98968e-03  1.17221e-03 -2.26714e-04
       H -1.72931e-03 -1.83978e-03  5.61807e-03
       O  1.20620e-03 -1.95584e-04 -1.86684e-04
       H  2.83082e-03  3.06501e-04 -3.75300e-03