192
# CELL(abcABC):   16.99620    29.43815    27.67315    90.00000    90.00000    90.00000  Step:           0  Bead:      24 velocities{atomic_unit}  cell{atomic_unit}
       O  1.53847e-03 -4.14614e-04  8.67408e-04
       H  2.82972e-03  1.86528e-04  3.97086e-03
       H  4.73599e-03  6.75566e-04 -5.14195e-03
       O  1.13357e-03  9.67096e-06 -5.23919e-04
       H  2.69151e-03 -2.37186e-03  5.82595e-03
       H -1.15688e-03  1.19121e-03 -2.93507e-03
       O  3.72363e-04 -1.17873e-05  5.29626e-04
       H  1.24682e-03  6.85056e-03  1.27161e-03
       H -1.73464e-03  7.54254e-04 -1.62451e-03
       O -1.08018e-03 -1.59505e-03  5.88811e-04
       H -3.95706e-03 -6.29464e-04 -7.69691e-03
       H  7.47605e-03  4.27065e-03 -3.89029e-03
       O -8.28214e-05  1.45595e-04 -4.93548e-04
       H  4.80583e-03  4.04826e-03 -4.95180e-03
       H -2.94967e-03 -8.43972e-03  2.95591e-03
       O -2.57569e-04 -1.12441e-03  5.98137e-04
       H  3.04580e-03  1.41883e-03 -6.72212e-04
       H  5.16392e-03  2.55438e-03  1.09502e-05
       O -7.18654e-04  5.34954e-04 -3.77373e-05
       H  6.03369e-03  1.06816e-02 -1.43747e-03
       H -4.69656e-03 -5.10392e-03  4.32073e-03
       O -8.41566e-04 -6.46540e-04  1.74458e-04
       H  4.92616e-03 -1.65985e-03  6.14592e-03
       H  4.92090e-03 -5.57347e-03  3.80243e-03
       O -3.85632e-04  1.52288e-03 -1.07454e-03
       H  1.92993e-03 -2.82232e-04 -2.19550e-03
       H -4.49427e-03 -1.10654e-03 -2.36252e-03
       O -1.10076e-03  5.07087e-04 -2.04395e-04
       H -2.43483e-03 -3.86339e-03  1.43047e-03
       H  2.05092e-03  3.96469e-03  4.68616e-03
       O -8.44892e-04 -2.64805e-04  6.16624e-04
       H  1.04402e-03  3.28149e-04 -4.89926e-03
       H -5.59860e-04 -1.08301e-03 -3.18064e-04
       O  4.50324e-04  1.74831e-04  3.99050e-04
       H  3.61999e-03 -2.88677e-03 -3.06186e-03
       H  4.37809e-03  3.78769e-03 -2.67024e-03
       O  5.50154e-04  1.56253e-03 -5.03781e-04
       H  1.88668e-03  4.48698e-03  2.60592e-03
       H -5.35132e-03 -3.69018e-03  5.97772e-03
       O  1.17737e-03 -4.25130e-04 -6.11636e-04
       H -1.91374e-03 -1.40800e-03 -6.42103e-04
       H -3.31177e-03 -4.17466e-03 -1.38027e-03
       O -1.31887e-03  1.42409e-03  6.79454e-04
       H -1.13665e-03  5.62975e-03  6.97061e-04
       H  5.54623e-03  1.51798e-03  9.65093e-04
       O  5.48997e-06  2.12531e-04 -1.57637e-03
       H -4.12531e-03 -1.59304e-03  5.95327e-03
       H  4.85380e-03  1.20666e-03 -2.41474e-03
       O  1.23308e-03  2.00760e-03 -4.14850e-04
       H  2.66518e-03 -4.10290e-03 -2.05442e-04
       H  4.34004e-03 -1.98091e-03  5.13989e-03
       O -4.21794e-04  3.93604e-04 -1.03714e-05
       H -3.53926e-03  2.52181e-03  4.15283e-03
       H  1.08834e-02 -1.03247e-03 -2.99075e-03
       O -5.58547e-04 -8.39742e-04 -1.05035e-04
       H  1.57363e-03 -3.06971e-03  2.23988e-03
       H -4.59459e-04 -1.12084e-03  4.24344e-03
       O -2.47045e-04  7.95087e-05 -1.91058e-03
       H  1.96864e-03  5.71095e-03  7.94629e-04
       H  1.87807e-04 -2.28223e-03 -1.58952e-04
       O  2.24901e-04  7.63189e-04  7.41731e-04
       H -4.45449e-03  1.03724e-04  5.90411e-03
       H -2.58749e-03  4.54067e-04  4.34164e-03
       O -1.29302e-03  3.98045e-04 -9.79434e-04
       H -7.22937e-03 -6.88578e-03 -3.55674e-03
       H -1.85868e-03  1.63487e-03  2.37186e-03
       O -1.87161e-04 -1.93988e-04  1.80482e-03
       H -1.52447e-03 -3.79994e-03 -3.50084e-03
       H  7.84150e-04 -2.53066e-03  7.06750e-03
       O  1.03664e-05  1.08389e-03  6.19378e-04
       H  1.08155e-03  2.09435e-03 -4.36850e-03
       H -4.39381e-03 -2.50478e-03  1.33580e-03
       O  2.84603e-04 -5.51078e-04 -8.12375e-04
       H  7.79529e-03 -1.56301e-04  3.61477e-03
       H -2.27649e-04  1.16604e-04  1.18187e-03
       O  8.15174e-04 -6.38067e-04  7.27841e-04
       H -1.77374e-04 -1.38167e-03 -5.26841e-04
       H  2.88246e-03  2.05217e-03 -5.74587e-03
       O -5.20946e-04  2.08172e-03 -6.53140e-04
       H  5.86607e-04  2.97430e-03 -8.66730e-05
       H -5.43198e-03 -2.43419e-03  6.50894e-04
       O -6.31825e-04 -7.61012e-04  6.85704e-04
       H  8.39052e-04  1.51859e-03 -1.18641e-04
       H  2.56811e-03  4.53106e-03  2.27104e-03
       O -2.70006e-03 -5.83119e-04  1.94507e-06
       H  4.32494e-03  7.36843e-04  7.71660e-04
       H -9.04335e-04 -1.76091e-03  1.53016e-03
       O -2.10800e-03  4.69680e-04 -1.44276e-03
       H -1.14534e-03  2.45587e-03  3.73494e-05
       H  1.19305e-03 -5.76106e-04  7.01238e-03
       O  8.29429e-04 -4.69301e-04  2.11670e-04
       H -1.92049e-04  1.64319e-03  5.77114e-03
       H -2.97698e-03 -3.43512e-03  4.97276e-03
       O -1.11114e-03  3.57479e-04  5.40725e-04
       H  5.31139e-03 -3.51053e-03 -2.18533e-03
       H  6.08317e-04 -1.67427e-03 -9.38821e-04
       O -4.25103e-04 -9.50539e-04  6.55032e-04
       H -3.82699e-03  1.43546e-03  4.73571e-04
       H -2.34849e-03 -6.44439e-03 -1.23231e-03
       O  1.63533e-03 -1.98046e-04  2.48968e-04
       H -1.50317e-03 -8.16389e-04  9.09834e-04
       H -5.29178e-03  2.19532e-03 -3.86889e-03
       O -1.46128e-04 -2.80960e-04  1.23907e-04
       H -1.86357e-03  4.26992e-03 -2.11984e-03
       H -2.87048e-03 -6.71074e-04 -3.95770e-03
       O  1.35983e-03  5.28216e-04 -7.13461e-04
       H  4.17632e-03  5.74294e-03  2.41095e-04
       H -2.84676e-03  3.60231e-03 -3.94677e-04
       O  1.23369e-03 -2.99663e-04  2.21346e-04
       H  9.43969e-04 -1.97895e-03  3.30857e-03
       H  2.37251e-03  4.63914e-03 -3.02523e-03
       O -4.62346e-04  1.57347e-03 -8.48173e-04
       H -4.25357e-03 -2.97614e-03  5.40400e-03
       H  6.60207e-03  5.03756e-04 -3.78573e-03
       O  6.84769e-04  1.39552e-03 -1.01244e-03
       H -6.20745e-04  2.82259e-03  1.40724e-04
       H  5.55699e-03 -8.13291e-03  1.44738e-03
       O  1.48171e-03 -1.04288e-03  1.06613e-05
       H -4.52667e-03  1.20756e-03  4.52126e-03
       H  3.37287e-03 -8.31108e-05  1.81447e-03
       O -3.40982e-04 -3.11639e-05  5.11489e-05
       H -6.83031e-03  2.11199e-03 -4.79081e-03
       H -2.47026e-03  2.80242e-03  9.18121e-04
       O -3.51681e-05 -4.01323e-05  8.66087e-04
       H  6.89440e-05 -5.32079e-03  2.65033e-03
       H -5.42794e-03 -2.32748e-03  7.94014e-04
       O -1.27231e-04  1.44945e-03  7.91935e-04
       H -1.32786e-03  1.33438e-03  1.08967e-03
       H  1.39126e-03  2.19726e-03 -3.79601e-04
       O -3.78809e-04 -4.95797e-04  6.20806e-04
       H -2.45898e-04  9.30842e-04  4.47168e-03
       H  1.65600e-04  2.08294e-03  4.26339e-03
       O  4.42969e-05 -7.38108e-04  8.62702e-05
       H  4.34879e-03  1.47574e-03 -1.02242e-04
       H -8.58819e-04  4.06670e-03  2.44733e-03
       O  1.99272e-04 -1.80272e-04 -2.80807e-04
       H  8.48633e-03 -3.02425e-03  3.16926e-03
       H -1.30416e-03 -6.18908e-03 -4.48817e-03
       O  5.45008e-04 -1.34667e-03  4.90383e-04
       H -2.92997e-03 -9.81887e-03 -6.54446e-03
       H  1.78658e-03 -2.13740e-03  2.91160e-03
       O -7.37993e-06 -2.11322e-04 -5.16511e-05
       H  4.83429e-03 -4.06634e-03  7.82826e-03
       H  2.62389e-03  2.27761e-04  1.41170e-03
       O  7.16988e-04 -7.76282e-05  2.23244e-03
       H -7.36553e-04  9.11874e-04 -4.27365e-05
       H  8.95541e-04 -6.45201e-03 -9.21839e-04
       O -1.97882e-04 -5.10411e-04 -1.80383e-04
       H  4.20900e-03 -4.58650e-03  4.02100e-03
       H -4.66417e-03 -5.32965e-03  4.35020e-03
       O  1.13648e-03 -1.52742e-03  7.93987e-05
       H -3.53007e-03 -2.74766e-03 -2.13881e-03
       H  4.68786e-04 -5.65682e-03 -8.74748e-04
       O  8.57472e-06  7.46163e-04  6.77462e-04
       H -2.00562e-04  2.51363e-03  4.09421e-03
       H -2.70539e-04 -2.12859e-03 -2.95781e-03
       O -3.09994e-04  4.16749e-04 -9.64371e-05
       H  3.90519e-03 -2.52401e-03 -3.77311e-03
       H -2.17828e-03 -6.08827e-03  2.02168e-03
       O  9.03439e-04  8.12208e-04  8.82524e-04
       H -1.97644e-03  4.93006e-03  2.24798e-03
       H  5.83769e-03  1.99079e-03 -5.97328e-03
       O  3.91833e-04 -8.16853e-04  6.11077e-04
       H  3.73490e-03  2.52026e-03  1.27521e-03
       H -2.79531e-04  2.53425e-03 -4.24144e-03
       O -1.14596e-03 -4.55824e-05 -4.86832e-04
       H  4.78684e-04  5.74614e-03 -4.18630e-03
       H -1.81750e-03  2.25427e-04 -2.86263e-03
       O -2.45534e-04  1.05915e-03 -6.84840e-04
       H  6.04960e-03 -6.80380e-03  1.03592e-03
       H -3.74252e-04 -4.54592e-03  3.51315e-03
       O -1.33788e-03 -3.53233e-04  5.24239e-04
       H  3.71603e-03 -2.55640e-03 -8.66521e-04
       H  9.35721e-04 -1.99812e-03  1.54923e-03
       O  1.08689e-03  8.09995e-05 -2.82299e-04
       H  3.76657e-03  1.64253e-03 -4.12577e-03
       H -8.40921e-03  5.28165e-03  1.59739e-03
       O  1.17785e-03 -1.10522e-03 -6.78924e-04
       H -3.51417e-03  1.13616e-03  4.70130e-04
       H  2.09820e-03  1.49924e-03  8.29463e-03
       O -2.74744e-04  6.86371e-05  5.27359e-04
       H -3.49124e-03 -8.06721e-03  1.25221e-03
       H -1.31482e-03 -6.33430e-04 -1.19229e-03
       O  1.06768e-03 -6.51834e-04 -1.45714e-03
       H -3.27105e-03  1.83283e-03  5.16143e-03
       H -3.36251e-03  2.06002e-03  1.73727e-03
       O  6.52577e-04  2.20718e-04  9.91167e-04
       H  4.97007e-03  4.89435e-03 -1.25193e-03
       H -7.17117e-03 -4.22198e-03  2.87615e-03
       O -1.04562e-03  1.58453e-03 -8.19023e-04
       H -1.08278e-03 -2.18787e-03  1.91328e-03
       H -4.26194e-03 -6.12699e-04  3.27025e-03
192
# CELL(abcABC):   16.99620    29.43815    27.67315    90.00000    90.00000    90.00000  Step:          10  Bead:      24 velocities{atomic_unit}  cell{atomic_unit}
       O -1.70380e-03  7.90411e-04 -3.01017e-06
       H -1.19825e-03  6.42839e-04  3.24496e-03
       H -3.47542e-03  3.71586e-03 -3.35246e-03
       O -1.19741e-03 -1.18251e-03 -4.74692e-04
       H  1.88248e-03  1.72796e-03 -5.58155e-04
       H  8.03773e-04  8.37088e-03  1.09349e-03
       O -3.65561e-05  2.98612e-04 -2.04464e-03
       H  3.27488e-03 -9.91287e-04 -2.49911e-05
       H  1.36298e-03 -6.91841e-03 -5.89711e-03
       O -4.69838e-04  1.95101e-05  9.15079e-04
       H -5.19485e-03 -1.13235e-03 -1.19250e-03
       H -6.67549e-03 -2.89911e-03  4.90461e-03
       O  1.35217e-03 -1.16300e-03  6.41583e-04
       H  2.38303e-03 -1.36640e-03 -8.28088e-04
       H  4.00508e-03  1.15367e-03  6.07339e-04
       O  1.33296e-03  2.87611e-04 -1.52012e-04
       H  3.33032e-03  3.58900e-03 -4.38213e-03
       H  3.73012e-05  2.00334e-03 -1.70834e-03
       O -3.74194e-04  1.97422e-03  1.32284e-03
       H  4.05724e-03 -5.73308e-03  1.29760e-03
       H -3.31571e-03 -1.76806e-03  7.41932e-04
       O  1.04380e-04 -1.03094e-03  6.25301e-04
       H  5.60714e-04 -2.10602e-03 -5.28797e-03
       H  3.54249e-03  2.69093e-03  4.19726e-03
       O  1.88029e-03  7.40927e-04  8.56143e-04
       H  6.26860e-03  3.05427e-03  1.80797e-03
       H  1.49899e-03  6.81431e-03 -1.08238e-03
       O  2.95125e-03  2.87077e-04 -1.65827e-04
       H -3.34324e-03 -5.46641e-03  2.48236e-03
       H -6.41758e-03 -8.90243e-03 -1.80678e-03
       O -1.04982e-03 -3.62046e-04  5.54809e-04
       H -6.79117e-03 -1.23029e-02  2.13113e-03
       H  3.94509e-03 -5.14019e-03  3.04347e-04
       O  1.12123e-03 -1.33290e-04  2.69818e-04
       H  3.44317e-03  4.76572e-03 -7.21556e-04
       H -5.11388e-04 -1.11403e-03 -3.63721e-03
       O -4.37267e-04 -1.61123e-03  9.40554e-04
       H  3.61062e-03 -3.22383e-04 -4.00390e-03
       H -1.94391e-03 -1.50933e-05 -2.99489e-03
       O -2.84851e-04 -5.46151e-04 -1.13048e-03
       H -4.91457e-03  3.54788e-03 -1.28544e-03
       H  4.91432e-03  1.03842e-02 -3.08750e-03
       O  1.64668e-03  1.26137e-03  5.96308e-04
       H -4.15533e-04 -4.08472e-03 -3.30350e-03
       H  9.62223e-03 -2.21848e-04 -5.13241e-03
       O -2.83093e-04  2.02889e-03  1.34256e-03
       H  3.31570e-03 -2.50264e-03  8.60815e-04
       H -1.54642e-03  1.21872e-03 -1.68502e-04
       O -4.21630e-04  2.23127e-04  9.41682e-05
       H  3.32455e-04  1.24974e-03  1.64298e-04
       H  4.86892e-03  3.76598e-03  1.31938e-03
       O -1.33898e-03 -8.72528e-05 -1.52972e-03
       H -8.45888e-03 -1.34412e-03  3.29488e-03
       H  3.81346e-03  6.50436e-03  1.05822e-03
       O -1.92890e-04  1.08193e-03  4.66636e-04
       H  6.16896e-04 -1.43279e-03 -2.73572e-03
       H  1.89610e-03  3.81191e-03 -8.19726e-05
       O -1.98758e-04 -5.62580e-04  7.03739e-04
       H  6.12858e-04 -7.58391e-04  5.24856e-03
       H  2.47908e-03 -8.99057e-04  1.49832e-03
       O -5.17594e-04 -9.49785e-04 -5.35588e-04
       H -5.21309e-03  6.86343e-04 -5.51345e-04
       H  2.28012e-03  2.74028e-03 -2.55471e-03
       O -2.84616e-03 -9.58136e-04 -1.57659e-04
       H -2.02486e-03 -5.12543e-03 -1.52006e-03
       H  1.67355e-03  2.02262e-03 -2.72949e-05
       O -1.26561e-03  2.61079e-04 -2.32955e-03
       H  2.24778e-03 -2.85038e-03 -5.64188e-04
       H  1.14067e-03 -6.10514e-04  4.70326e-03
       O -6.78247e-04 -2.32415e-04  1.77791e-04
       H -2.11170e-03  6.70524e-03  1.04586e-03
       H  2.53113e-03 -3.64130e-03 -7.56156e-03
       O  4.60983e-04 -2.89110e-04  4.38560e-04
       H -4.19600e-03 -2.43515e-03 -5.17453e-03
       H -1.05452e-03 -3.33992e-03 -5.89075e-04
       O  1.01149e-03 -5.60033e-04 -4.35402e-04
       H  2.70703e-03  3.68314e-03  6.26336e-03
       H -1.98767e-03 -5.09157e-03 -2.99236e-04
       O  6.42094e-04 -1.56888e-04 -1.61974e-03
       H  1.77423e-03  4.09046e-03  4.91329e-03
       H -5.80801e-04 -1.15755e-03 -2.32587e-05
       O -7.12970e-05 -4.90273e-04 -7.24685e-04
       H -6.35174e-03 -3.33677e-03 -9.09550e-03
       H -6.52336e-03  3.41344e-03  3.58392e-03
       O  6.21572e-04  1.62990e-03  1.03759e-03
       H  6.31429e-03 -2.14605e-03 -3.50562e-04
       H -4.31517e-03 -1.93855e-03  2.15807e-03
       O -4.07546e-04  1.73262e-03 -1.25007e-04
       H -1.62811e-03  8.19266e-03  5.01123e-03
       H  9.10833e-04 -6.73908e-03 -3.84796e-03
       O -1.22582e-04 -1.52269e-03 -5.86968e-04
       H  1.49665e-03 -3.94582e-03 -4.56390e-03
       H -5.06178e-04  6.32220e-03 -3.22791e-04
       O  7.09912e-04 -1.55530e-04  2.42577e-04
       H  4.57037e-03 -1.78914e-03  2.54356e-03
       H -1.71249e-05  4.60545e-03 -2.04869e-04
       O  3.20996e-04  5.44938e-04 -1.22277e-03
       H -3.14139e-03  6.30319e-03 -1.03232e-03
       H  3.73650e-03 -8.35690e-04  1.72408e-03
       O -6.82703e-04 -9.97312e-04 -5.10041e-04
       H  1.99369e-03  4.12148e-03 -8.93859e-03
       H  3.89170e-03 -2.52858e-03 -1.96143e-03
       O  4.35586e-04  6.75410e-04 -8.49563e-04
       H -2.34166e-03 -1.01999e-03 -1.81681e-03
       H -1.80986e-03  1.80099e-03  6.26598e-03
       O  5.27850e-04  6.37789e-04 -7.61749e-04
       H  3.62431e-04 -1.82393e-03  3.86986e-03
       H  4.41215e-03  4.98006e-03  2.27761e-03
       O -1.89393e-04  1.35464e-03  7.16607e-04
       H -8.86412e-04  3.28809e-03 -1.81537e-03
       H -1.21274e-03 -6.40545e-03  6.91881e-04
       O -5.41981e-04  5.84611e-05 -1.02776e-03
       H -2.77618e-03 -3.56616e-04 -1.08148e-03
       H -3.73971e-04  9.49631e-03  2.88979e-04
       O  1.44448e-03  1.39507e-03  7.46449e-04
       H  9.24505e-04 -4.90549e-03 -6.46709e-04
       H -1.24880e-03  5.10550e-03 -5.94510e-03
       O  2.84044e-04  2.14898e-04  5.52366e-04
       H -3.86361e-03  9.33668e-03 -1.45075e-03
       H  6.28794e-03  2.77902e-03 -3.13872e-03
       O  4.01639e-04  6.79371e-04 -2.15848e-03
       H  8.94119e-04  3.64964e-03  8.63123e-04
       H  2.76319e-03 -3.73483e-03  5.78631e-03
       O  6.33730e-04 -2.07644e-04 -4.15692e-04
       H  8.47503e-04 -1.56575e-03  4.93636e-04
       H  2.26747e-03 -8.67786e-03  7.46400e-03
       O  2.74689e-04  1.32858e-03 -7.39264e-04
       H  4.41815e-03 -1.79648e-03 -4.71613e-03
       H -2.25972e-03  1.53687e-03 -6.43914e-04
       O  3.40084e-04 -4.71692e-04  8.67397e-04
       H -3.19557e-04  7.08662e-03  1.94015e-03
       H -8.23013e-04 -4.06473e-03  5.20787e-03
       O -8.78592e-04  8.78379e-05  1.16896e-03
       H -2.05077e-03 -3.46732e-04 -8.33762e-04
       H -3.35824e-03  8.58131e-04 -3.78419e-04
       O  4.31941e-04  7.38523e-04  7.54037e-04
       H -5.56732e-03  2.13547e-03  3.58326e-03
       H  3.12238e-04  3.17161e-03  5.96901e-03
       O -2.72228e-04  2.52898e-04 -6.09327e-04
       H -1.54247e-03 -1.74383e-03 -1.64559e-03
       H -1.44258e-03  5.43290e-03 -3.59726e-03
       O  6.35249e-04 -3.32637e-04  7.45045e-04
       H -7.46410e-03  1.72649e-03 -1.77622e-03
       H  2.33046e-03 -2.03932e-03 -3.01539e-04
       O  4.34682e-04 -3.71573e-04  1.24066e-04
       H  5.95119e-03  1.95490e-03  4.40330e-03
       H -2.25216e-03  4.18315e-03 -4.21799e-03
       O  1.04065e-03  1.52011e-04 -9.39093e-04
       H  3.21844e-03  2.04908e-03 -1.10708e-03
       H -3.04691e-03 -4.92929e-04 -2.12161e-03
       O  4.09868e-04  1.52806e-03  1.17258e-04
       H -5.55244e-03  3.04535e-03  1.56651e-03
       H -1.76310e-03  5.76499e-03  8.47370e-04
       O -7.11172e-04 -8.44233e-04  8.03575e-05
       H -3.73063e-03 -1.48438e-04  1.62968e-03
       H  3.71236e-04 -6.57403e-03  6.34544e-04
       O -7.08534e-04  1.44092e-03 -1.58561e-03
       H -3.05792e-03 -2.52368e-03 -2.44853e-03
       H -3.60633e-03  9.61117e-05 -1.34022e-03
       O  1.77712e-03  1.10020e-03  1.78353e-03
       H -3.04093e-04 -1.82157e-03  1.85440e-03
       H -2.96232e-03 -5.73843e-03 -7.10132e-04
       O -9.59773e-04 -8.10817e-04 -6.47570e-04
       H -3.21475e-03 -2.32846e-03  1.97899e-04
       H  2.17546e-03 -2.19949e-03 -7.56155e-04
       O  1.73272e-03  1.30480e-03 -4.77208e-04
       H  5.02656e-05 -1.35098e-03  2.65180e-03
       H  4.69714e-04  6.42110e-03 -4.29517e-03
       O -3.83123e-04  7.32824e-05  2.00637e-05
       H  2.64422e-03  5.43199e-03  5.93259e-04
       H -1.78370e-03 -1.89653e-03  3.55382e-03
       O  9.96973e-05 -1.71939e-03 -1.09651e-03
       H -1.98246e-03 -6.63502e-03  9.37074e-03
       H -6.99867e-04 -2.58695e-03 -1.44041e-03
       O  4.98194e-04  1.19301e-03  2.23742e-03
       H -6.32481e-03  2.22187e-04 -2.28474e-03
       H  3.96246e-03 -4.71147e-03  1.80140e-03
       O -8.83992e-04  1.74896e-04  1.15654e-04
       H  4.58823e-03 -6.66487e-03  7.08136e-04
       H  1.58868e-03  4.21190e-04  2.88799e-04
       O  1.11965e-03 -1.07441e-03  2.20467e-04
       H  3.63306e-03  2.49259e-03 -5.05197e-03
       H  3.59928e-04  2.00874e-03  7.48175e-03
       O -1.13860e-03  2.03773e-04 -1.17392e-03
       H -1.65016e-03  3.41177e-03 -1.18284e-03
       H  3.74323e-03 -3.18547e-03  6.13746e-03
       O  3.37750e-04  1.02128e-03  6.92626e-04
       H  2.79631e-03 -9.06341e-04 -5.20475e-03
       H  2.69697e-03 -5.21189e-03 -8.69002e-04
       O -3.98873e-04 -3.98484e-04 -6.87075e-04
       H -2.53282e-03  6.86222e-03  4.28681e-03
       H  2.56758e-03 -1.31347e-03  3.14237e-03
192
# CELL(abcABC):   16.99620    29.43815    27.67315    90.00000    90.00000    90.00000  Step:          20  Bead:      24 velocities{atomic_unit}  cell{atomic_unit}
       O  8.78577e-05 -1.07412e-03 -8.56504e-04
       H -4.44853e-03 -1.23470e-03  6.00945e-03
       H -2.31151e-03 -1.09652e-03  1.07404e-03
       O  5.59298e-04  1.32151e-03  1.90016e-03
       H  4.60443e-03 -2.95440e-03  2.42652e-03
       H -1.69440e-03 -2.17364e-03 -1.93262e-03
       O -4.01510e-04  8.95590e-04  1.72234e-04
       H  9.12470e-04  7.56703e-03 -4.64053e-03
       H  2.28820e-03  8.80982e-05 -5.82408e-03
       O  1.23639e-03 -7.39414e-04  5.35072e-04
       H -1.33069e-03 -4.40674e-03  6.41933e-03
       H -2.02141e-03 -1.51966e-03 -1.96693e-03
       O -8.82073e-04 -1.15646e-03 -5.70286e-04
       H -6.79643e-03  4.16644e-03  1.90186e-03
       H  2.56559e-03 -8.10949e-04  1.69270e-04
       O -1.50816e-03 -7.48274e-04 -1.65470e-03
       H  1.49148e-04  5.23210e-04  8.65792e-04
       H -4.28094e-04 -6.48881e-07 -4.74219e-03
       O -7.42164e-04  3.00160e-04  8.64671e-04
       H  3.36783e-03  1.68941e-03 -1.26341e-03
       H -6.86565e-03 -4.46456e-03  2.42053e-03
       O  2.56761e-05 -2.81267e-04  1.24690e-03
       H -3.33036e-03 -1.66089e-03  2.75087e-03
       H -2.46952e-03 -2.91476e-03 -2.39165e-04
       O -8.72771e-04  3.36623e-04  5.18428e-04
       H  1.05221e-03 -1.64039e-03  1.57908e-03
       H -7.60200e-03 -4.13481e-03  2.07205e-03
       O  1.13994e-04 -8.08290e-04  1.17517e-03
       H  3.51436e-03 -7.74380e-04  2.40778e-04
       H -7.11821e-04 -3.80990e-04 -1.41405e-03
       O  8.92773e-04  1.77796e-03  1.06291e-03
       H -4.06044e-03  1.01160e-04 -2.45786e-03
       H  1.01270e-03  1.63414e-03  3.77483e-03
       O  1.77984e-04 -6.99367e-04  1.79941e-03
       H -2.12658e-03 -1.79715e-03  7.24244e-03
       H -2.76522e-03  4.10716e-03 -3.75958e-03
       O  2.91769e-04 -7.28265e-04 -3.00870e-05
       H  1.54476e-03 -2.48879e-03 -3.77809e-03
       H -2.74593e-03 -2.99331e-03  1.70863e-03
       O  3.73824e-04 -4.98339e-04  1.67332e-03
       H  1.08231e-03 -3.44418e-03  1.46560e-03
       H  1.52567e-03  2.51196e-03  1.52936e-03
       O  4.24907e-04  1.22715e-03  1.84419e-03
       H -4.86910e-03  2.53797e-03  2.27939e-03
       H  3.71011e-03  3.20302e-04 -2.99190e-04
       O -6.49712e-04 -8.89506e-04  4.45061e-04
       H -5.28648e-03 -3.50234e-04 -2.68743e-03
       H  3.96990e-04  4.54648e-04 -3.77408e-03
       O -4.14865e-04 -1.58179e-04 -1.08422e-04
       H  1.70890e-03 -3.40054e-03 -8.22408e-04
       H -1.36849e-03  1.39649e-04 -9.20892e-04
       O -5.12318e-04 -3.90571e-04  1.22600e-03
       H  4.14254e-05  2.50372e-03  6.58133e-03
       H  5.22056e-04  1.02400e-03  1.71304e-04
       O -2.55865e-04 -5.00222e-05 -2.27552e-04
       H -1.51882e-04  3.82024e-04  3.49695e-03
       H  1.06958e-03  5.09502e-04  1.31170e-03
       O  7.92937e-04  1.33434e-03 -1.66609e-03
       H -1.69313e-04  6.15767e-04 -3.58544e-03
       H -3.38601e-04 -2.16060e-03 -1.20161e-03
       O  1.91327e-03 -9.68443e-04  2.00014e-04
       H -1.07036e-03 -1.75126e-03  3.98943e-03
       H  1.53383e-03  2.30688e-03 -1.48169e-03
       O -8.40773e-04 -2.77326e-04 -4.75521e-04
       H -1.18468e-03 -1.96112e-03 -1.88167e-03
       H  6.57080e-03 -4.23486e-03 -1.27755e-04
       O  1.08050e-04  8.92240e-04  1.22142e-03
       H -7.88690e-04 -9.34643e-04 -4.96540e-04
       H  1.17618e-03  6.53821e-03  1.56264e-04
       O -1.29282e-03 -3.45204e-04  3.55816e-04
       H  8.32237e-04 -6.63336e-03  3.42544e-03
       H -2.27950e-03  4.51220e-03 -2.95527e-03
       O  1.45011e-03 -1.31313e-03 -6.19682e-04
       H -6.87949e-03  3.45715e-03  4.08303e-03
       H -5.00103e-03 -1.74881e-03  4.30392e-03
       O -5.81000e-04  1.07484e-05 -5.81164e-04
       H  1.80691e-03 -2.77434e-03  3.10626e-04
       H -5.20597e-03 -2.71891e-03 -1.64596e-03
       O  1.44269e-04 -1.36899e-03  9.19350e-04
       H  3.15846e-03  4.68155e-03  3.96669e-03
       H -1.13100e-03  2.89222e-03 -3.12336e-03
       O -7.20981e-04  1.25734e-03  4.42946e-04
       H -1.30852e-03 -1.99514e-03 -2.50628e-03
       H  1.99835e-03 -7.31401e-03  2.68392e-03
       O  1.29807e-03 -1.65992e-03 -1.55612e-03
       H  4.24055e-03 -3.43955e-03 -1.03996e-03
       H -6.02437e-04 -4.36034e-03  2.61604e-04
       O  2.82163e-04  1.45761e-04  5.68479e-04
       H  2.36721e-03 -8.49315e-03 -4.86141e-03
       H  3.42746e-03  3.59091e-03 -2.38785e-03
       O  1.31545e-03  4.09650e-04  9.07403e-04
       H  4.25772e-04 -1.31153e-03 -1.17855e-03
       H -4.25308e-03  4.25152e-04  2.77009e-04
       O  5.64889e-04  2.40481e-04  8.41410e-04
       H -2.51554e-03  4.09116e-03  1.24334e-03
       H -4.15122e-03  3.04018e-03  1.97335e-03
       O  1.52031e-03 -1.48053e-03 -7.05452e-05
       H  2.52031e-03  1.13846e-03 -1.05007e-03
       H -3.09413e-03  6.41094e-03  4.20620e-03
       O -2.91315e-04 -8.40308e-05  6.25718e-04
       H -2.20563e-03 -4.49484e-03  2.06716e-03
       H -1.93517e-03 -1.60423e-03 -4.76527e-03
       O  1.10207e-03 -6.83260e-04 -1.31190e-03
       H  1.05408e-03 -4.16386e-03  3.63518e-03
       H  5.32955e-03 -4.60800e-03  2.51116e-03
       O  1.63687e-04  2.20060e-03  1.65811e-03
       H -3.54196e-03 -2.51568e-03 -1.01793e-03
       H  4.14439e-04 -6.35664e-04 -1.43153e-03
       O -5.46709e-04 -5.30169e-06  5.52674e-04
       H  1.23852e-03 -4.91145e-03  3.68127e-03
       H  5.46654e-03 -6.00197e-03  6.81629e-03
       O -1.10154e-03 -9.31906e-04 -1.29264e-03
       H  1.31191e-03 -3.39943e-03  1.96409e-04
       H  1.64517e-03 -7.16466e-03 -6.98693e-04
       O  1.51440e-04  1.02921e-03  1.84438e-03
       H  4.35575e-03  1.28124e-03 -4.60032e-03
       H  6.04909e-03 -3.73765e-03 -2.27490e-03
       O -2.03183e-04  1.78745e-04  1.66577e-03
       H -6.16277e-03 -4.41410e-03 -2.75304e-03
       H -2.38481e-03  6.75628e-03  2.87691e-03
       O -7.46303e-04  7.36167e-05 -4.48749e-05
       H  8.95902e-04 -2.08534e-03 -6.86317e-05
       H  5.57202e-04 -2.38153e-04  4.08854e-03
       O  2.64071e-04  7.19648e-04 -6.99432e-04
       H -7.47332e-03 -2.89561e-03  1.63558e-03
       H  1.78567e-03  3.84883e-03  1.65858e-03
       O  8.70770e-04 -1.31222e-03 -1.56538e-03
       H  9.00143e-04 -3.92115e-03  2.74208e-03
       H -2.78585e-03 -1.35152e-05 -1.65286e-03
       O -3.90481e-04  1.86200e-04  1.11146e-03
       H -1.76050e-04  3.49663e-03 -2.50815e-04
       H -7.86959e-03 -2.80187e-04 -4.60435e-03
       O -1.00859e-03 -4.76063e-06  4.16496e-04
       H -5.96835e-03  4.49532e-03 -4.36240e-04
       H -4.66887e-03  3.12449e-03 -1.58591e-03
       O  6.71979e-06  8.65089e-04  1.83268e-04
       H  8.62009e-04  1.51793e-03  4.08674e-04
       H -3.10106e-03 -6.19302e-03  5.56057e-03
       O -8.69289e-04  5.20927e-04 -3.91536e-04
       H  4.72599e-03 -3.09324e-04 -2.77608e-03
       H -3.62562e-03 -4.01676e-04 -1.12319e-03
       O  4.06984e-04  3.56589e-04  3.10810e-04
       H  3.66682e-03 -1.27564e-03  2.10644e-03
       H -1.10867e-03 -1.72354e-03  1.72499e-03
       O -7.37683e-04  2.89837e-04  1.52649e-03
       H -4.44751e-03  3.22321e-04  1.08900e-03
       H -4.15343e-03 -9.60292e-04 -5.10358e-03
       O  2.30828e-04  1.21196e-03 -6.45942e-04
       H -5.01184e-03  5.63590e-03 -1.15447e-03
       H  2.33397e-03  4.38785e-03 -7.07339e-04
       O  3.51703e-04  9.67630e-04  1.10179e-04
       H -2.06543e-03 -2.43034e-03  8.39419e-04
       H  6.48726e-03  2.98495e-03 -5.61727e-03
       O -2.26927e-04 -4.66483e-05 -7.06473e-04
       H -1.01773e-04 -3.62433e-03 -4.51678e-03
       H  2.67500e-03  5.19351e-03  1.17629e-03
       O -3.12836e-04  4.50710e-04 -2.97063e-04
       H -6.49987e-03 -4.49368e-03  4.51405e-03
       H -2.20479e-03  1.90545e-03 -1.57383e-03
       O  5.08885e-04 -1.15102e-03 -5.26425e-04
       H -5.50813e-04  4.07292e-03 -3.85533e-03
       H  2.65214e-04  3.48876e-03  2.65569e-04
       O -1.40915e-04  6.92988e-04  5.69368e-04
       H -2.86191e-04 -3.33509e-04  1.81523e-03
       H -8.48944e-04  4.42078e-03  3.23745e-03
       O -3.51874e-04 -8.88567e-04 -1.42188e-03
       H -2.37998e-03  3.44931e-03  2.16621e-03
       H  2.51326e-03  1.63912e-04 -4.73303e-03
       O -1.67824e-03  5.63708e-04 -9.66226e-04
       H -8.72369e-03 -2.04894e-03  1.81536e-03
       H  2.89407e-03 -3.34865e-03 -1.95040e-03
       O  1.01052e-03 -5.08804e-04  3.79955e-04
       H -3.45138e-03  3.57689e-03  2.28068e-03
       H  5.05544e-03 -4.40424e-03 -7.89998e-04
       O  1.48282e-04 -1.67511e-04 -1.96539e-03
       H  5.80385e-04  2.39747e-03 -2.59820e-04
       H  2.07187e-03 -3.91382e-03  6.56809e-03
       O  8.16213e-04  4.33713e-05  4.90007e-05
       H  1.04966e-04  2.48541e-03  2.16248e-03
       H -4.29702e-03 -4.55862e-03 -8.15985e-03
       O  2.28223e-04  5.90329e-04 -4.27056e-04
       H  6.98126e-04  7.39563e-04 -1.01626e-03
       H -4.52435e-03 -5.28304e-03  2.08445e-04
       O  3.99704e-04 -2.13184e-04  1.94780e-04
       H  4.86678e-03 -7.87821e-04 -8.88113e-04
       H -3.23064e-03 -1.06111e-02  3.04393e-03
       O -3.81523e-04  2.19974e-03 -2.27900e-03
       H -3.77645e-03 -2.43583e-03 -7.37216e-03
       H  4.96891e-03 -1.50896e-03 -5.57299e-03
       O -6.42353e-04 -1.12802e-03  1.41601e-03
       H -5.42640e-03  5.07214e-03  4.04761e-03
       H -1.84272e-03 -9.85100e-04  1.45502e-03
192
# CELL(abcABC):   16.99620    29.43815    27.67315    90.00000    90.00000    90.00000  Step:          30  Bead:      24 velocities{atomic_unit}  cell{atomic_unit}
       O -7.61671e-04 -3.87270e-05 -1.55728e-03
       H  2.46976e-04 -2.67435e-04 -2.90747e-03
       H  1.14689e-03  4.78976e-05 -2.32499e-03
       O -1.48021e-04 -1.32157e-03  3.48706e-05
       H -2.60985e-03  7.65099e-03  2.81571e-03
       H  1.66844e-03  2.26930e-03 -4.13627e-03
       O -5.72484e-05 -5.19315e-05 -8.04457e-04
       H -4.29645e-03 -5.11163e-03  5.23725e-05
       H  5.22258e-04  3.18435e-03  4.80702e-03
       O -6.94848e-04  3.51724e-04 -1.80699e-04
       H -1.97174e-03  5.84631e-07 -9.89831e-04
       H  9.86420e-04 -2.92300e-03 -1.27247e-04
       O  1.02706e-03 -7.19460e-04 -1.07318e-04
       H  7.68588e-04 -1.62552e-03  4.22058e-03
       H -9.20974e-04 -4.70617e-03  5.82799e-04
       O  2.01053e-05  1.67002e-04  1.49851e-03
       H -4.51026e-03  5.45095e-03 -1.69550e-03
       H  5.14520e-03 -3.06336e-03  2.25122e-03
       O  1.46329e-03 -6.49794e-04  4.78635e-04
       H  5.86013e-03  6.91338e-03  7.86772e-04
       H  4.54827e-04  2.45879e-03  1.96685e-03
       O -1.65544e-03 -1.04314e-03  1.14624e-03
       H -1.67427e-03  4.79705e-04 -1.41956e-03
       H -8.50890e-03  1.48000e-04  3.72351e-03
       O  2.76865e-04  6.44285e-04  6.00164e-05
       H  3.15825e-03  3.66653e-03 -3.63163e-03
       H -1.43082e-04 -3.61032e-03  2.34108e-03
       O  2.32356e-04  1.07816e-03 -5.15010e-04
       H -2.01311e-03  4.16369e-03 -1.03146e-03
       H  8.23951e-05  2.97150e-03  2.58198e-03
       O -7.63550e-05 -2.84004e-04 -8.19687e-04
       H  8.88330e-04  4.65257e-03 -2.16411e-03
       H  5.12621e-03  8.58711e-04  1.65888e-03
       O  3.70590e-04  7.61003e-04 -4.31735e-04
       H  2.51343e-03  2.80653e-03  1.46875e-02