192
# CELL(abcABC):   16.99620    29.43815    27.67315    90.00000    90.00000    90.00000  Step:           0  Bead:       5 velocities{atomic_unit}  cell{atomic_unit}
       O  1.04335e-03 -5.88542e-04  1.29854e-03
       H -1.01763e-03  1.02908e-03  9.32371e-04
       H -1.38573e-03 -1.01742e-03 -3.04734e-03
       O  6.60889e-04  1.06321e-03 -8.02815e-04
       H -6.48087e-03 -5.12077e-03 -1.66575e-03
       H  5.09908e-03 -5.11415e-03  7.65878e-04
       O  1.18159e-03 -3.81348e-04 -2.39490e-03
       H  4.60450e-03 -1.46548e-03 -2.88339e-03
       H  2.94017e-03  7.45567e-04 -4.28845e-03
       O  1.70441e-04 -2.39484e-04 -7.86946e-04
       H -1.72483e-03 -3.23791e-03 -1.40846e-03
       H -3.18980e-03 -3.81025e-03 -3.10236e-03
       O  1.04585e-03 -2.70381e-04  7.13112e-04
       H -5.05919e-03 -2.31728e-04 -3.90468e-03
       H -1.26527e-03  4.80414e-03 -2.39627e-03
       O  1.26629e-04  8.00198e-04  3.56402e-04
       H  1.56475e-03 -1.02116e-03  2.31922e-03
       H -2.48051e-03 -3.09386e-03  1.01485e-03
       O  2.41278e-04  1.37152e-03  1.92028e-03
       H -3.46539e-03  5.94946e-03  3.78522e-03
       H  1.51148e-03 -3.90869e-03 -1.94307e-03
       O -9.45456e-04  3.11365e-04  2.75049e-04
       H  6.20419e-03  7.80166e-03 -3.24588e-03
       H  2.24196e-03 -3.80172e-03  2.07863e-04
       O -6.59756e-05 -2.49747e-04 -1.24561e-03
       H -2.12198e-03  4.96629e-03 -4.72995e-04
       H  7.87529e-04 -2.65744e-03  7.25665e-03
       O  9.28332e-04  1.26640e-03  2.20739e-03
       H -2.42446e-03 -5.81288e-03 -1.75731e-03
       H -3.54222e-03 -7.23445e-03  3.50247e-03
       O  6.97669e-04  3.83025e-04  6.53289e-06
       H  3.74773e-03 -1.01328e-02 -2.41171e-03
       H  8.27936e-03 -2.34357e-03  4.14826e-03
       O  1.64677e-03  2.46310e-04  8.70486e-04
       H  4.83960e-04 -8.58788e-03 -1.20225e-03
       H  4.96575e-03 -6.46281e-04 -9.97007e-04
       O -4.97121e-04  1.58936e-04  3.61020e-04
       H  3.63307e-03  4.50716e-03 -4.49032e-03
       H -8.06466e-03 -9.24819e-04  5.97083e-03
       O  8.41150e-05  3.58449e-04  5.41134e-04
       H  2.75172e-03  1.44452e-03  1.63891e-04
       H  2.27881e-03  5.97179e-03 -9.07781e-04
       O -3.48962e-04 -8.91208e-04  5.65747e-04
       H  1.64526e-04 -2.37563e-03  8.68126e-03
       H -7.85001e-03 -5.61033e-03 -8.94188e-04
       O -5.07725e-04 -4.48791e-04 -2.23532e-03
       H -6.60336e-03  7.60875e-03  3.56484e-03
       H -2.21898e-03  5.23524e-03 -9.73839e-05
       O  4.98675e-04 -1.48884e-03  1.04148e-04
       H  8.30924e-03 -7.47769e-04  2.70078e-03
       H -2.55079e-03  2.50598e-03  2.42293e-03
       O  1.10044e-03  4.28111e-04  1.48159e-03
       H -6.44453e-04  2.53658e-03 -5.59735e-03
       H -2.69349e-03  2.88318e-03  4.73117e-03
       O -2.98400e-04  1.95362e-04 -2.11588e-03
       H  3.17789e-03  1.72111e-03 -2.48729e-03
       H -2.47702e-03 -9.02536e-04 -5.22296e-03
       O  1.06447e-03  2.08382e-03  6.65216e-04
       H -3.37358e-04 -4.26098e-03  4.99351e-03
       H  1.24449e-03 -1.57256e-03 -1.56722e-03
       O  1.08667e-03  2.68013e-04 -1.96872e-04
       H -1.28410e-03  2.34543e-03  3.96769e-03
       H  1.68101e-03  3.87735e-04 -1.65303e-03
       O -1.78545e-04 -1.17694e-04 -1.30182e-03
       H  4.90840e-03 -4.60355e-03 -4.76280e-03
       H -1.91202e-03  3.24736e-03 -7.58864e-03
       O -1.33628e-03 -3.83672e-04  6.74336e-05
       H -4.62559e-03  3.71050e-03 -1.97978e-03
       H -1.93685e-03 -2.75327e-03  2.48964e-03
       O -5.19026e-04 -1.03075e-03 -7.95623e-04
       H -3.30732e-03 -2.13655e-03  4.42706e-03
       H -4.68263e-03  5.88910e-03  1.32924e-03
       O -3.27106e-04 -1.01765e-03  5.12983e-05
       H -5.23110e-03  1.55554e-03  4.95414e-04
       H  4.16720e-03 -9.98333e-03 -5.53344e-03
       O -1.00832e-03  1.09046e-03 -9.27817e-04
       H -1.21241e-03  3.88793e-04  1.19271e-03
       H  1.03964e-03  3.67384e-03 -3.52061e-03
       O -4.41589e-04  7.90077e-04  1.81193e-03
       H  7.91894e-04  2.12378e-03 -3.98371e-04
       H -4.13029e-03 -2.39408e-04 -9.90088e-04
       O  4.70024e-04 -8.53304e-04 -7.91128e-04
       H  6.81765e-03  5.73615e-04 -3.50120e-03
       H -1.29471e-03  6.15715e-03  2.84924e-03
       O  3.04076e-04 -5.64033e-04  1.08346e-03
       H  4.75003e-03 -1.53350e-03 -7.25833e-03
       H  1.20939e-03 -4.12833e-03  2.79477e-03
       O  1.35524e-03 -1.82293e-04  6.05582e-04
       H -3.34325e-03  9.98761e-03  7.35299e-03
       H -4.34203e-04 -4.27268e-03 -7.34444e-03
       O -1.84947e-03  8.85067e-04  1.40889e-03
       H  5.96708e-03  2.51163e-03 -3.80855e-03
       H -1.24241e-03 -4.03629e-03 -3.08636e-03
       O  6.30628e-05 -9.63235e-05  1.84171e-04
       H -1.80459e-03  2.15321e-03  1.55509e-03
       H -2.74299e-03 -1.26629e-03 -2.08681e-03
       O  2.38083e-03 -3.71353e-04 -1.31580e-03
       H -6.11928e-03 -8.39928e-03  3.95074e-03
       H -2.21095e-03  7.29663e-04 -1.97651e-03
       O -2.80362e-04  1.46495e-03  3.60064e-04
       H -3.77784e-03  2.88294e-03  5.30723e-03
       H -2.71944e-03 -6.01936e-03  3.72752e-03
       O  1.33287e-03 -1.16111e-03 -1.17652e-03
       H -5.40145e-04  1.18246e-03  2.52574e-03
       H -6.10453e-04 -4.36988e-03 -1.90035e-03
       O -1.83959e-03 -4.39879e-04  1.41778e-03
       H  1.89727e-03  4.31695e-03  4.72568e-03
       H  5.40796e-03  2.86014e-03  2.15466e-03
       O -1.05287e-03 -3.12206e-04  1.14766e-05
       H -1.77081e-03  6.88447e-03 -1.12932e-04
       H  1.20275e-03 -4.22955e-03  6.85216e-04
       O  1.35732e-03  1.21110e-03 -1.10072e-03
       H  1.52121e-03 -4.54960e-03  4.37954e-03
       H  7.29287e-03 -4.23227e-03 -4.42431e-03
       O -9.03402e-04 -2.87715e-04 -1.50948e-04
       H -3.33537e-05 -3.59330e-03  9.31970e-03
       H -2.19059e-04  4.05698e-03 -1.91767e-03
       O  4.18166e-04 -1.72698e-03  3.14552e-05
       H  5.69014e-03 -4.09879e-03  6.02581e-03
       H  3.24103e-03 -2.21593e-04  8.14575e-03
       O  1.09056e-04 -2.11767e-03 -3.39426e-04
       H -4.04524e-03  8.94206e-04  6.07734e-03
       H  5.45256e-04 -1.23732e-05  1.87080e-03
       O -6.76059e-05  1.43341e-03 -1.77694e-03
       H  2.33254e-03  2.53178e-03 -1.14301e-03
       H -2.05102e-03 -2.15392e-03  7.62234e-03
       O -1.20618e-03 -1.01391e-04 -1.32655e-03
       H -3.30180e-03  1.74903e-03  8.85398e-03
       H -1.36562e-03 -2.72102e-03  9.08859e-04
       O -4.17995e-04 -1.95350e-04  1.47340e-03
       H  3.41774e-04 -6.65966e-04 -2.63119e-03
       H  3.28400e-03  4.75431e-03 -6.44798e-03
       O -3.53971e-04  8.18653e-04  2.98985e-04
       H  4.24744e-03 -2.29115e-03  4.95236e-03
       H  6.54703e-03  1.23945e-03 -3.50862e-03
       O  5.08889e-05 -1.14198e-03 -1.98398e-04
       H  1.84209e-03 -1.92356e-03  3.27207e-04
       H  1.22068e-03 -1.69395e-03 -3.14503e-03
       O  6.03498e-04 -3.83620e-04 -1.31931e-03
       H  5.36717e-03  1.65344e-03 -1.75308e-03
       H -9.40903e-03 -4.71139e-04  1.91942e-03
       O  7.76525e-04  1.04752e-03  5.09090e-04
       H  4.28077e-03 -2.74279e-03  7.21908e-04
       H  6.00565e-03  5.68087e-03  4.76717e-04
       O -1.98727e-04  5.14937e-04 -8.71263e-04
       H -6.68309e-04  1.35527e-03 -1.84569e-03
       H -5.22932e-03 -8.08016e-04 -3.39437e-03
       O  4.43542e-04 -1.24301e-03  6.64893e-04
       H -8.45131e-04 -1.17518e-03 -2.18113e-03
       H -1.47420e-03  2.66909e-03 -4.77717e-03
       O -5.00325e-04  2.96700e-04  1.24585e-03
       H -7.48106e-03  3.47134e-03  2.63677e-03
       H  4.48584e-03 -6.73688e-04 -4.83847e-03
       O  1.20612e-04 -6.36222e-04  3.09575e-04
       H  3.49344e-03  3.89531e-03 -4.10555e-03
       H -2.83021e-03 -2.63219e-03 -4.38185e-03
       O -7.80860e-05 -1.30926e-03  3.27146e-04
       H  2.58978e-03 -1.52100e-03  6.00974e-04
       H  4.19800e-03  1.28542e-03 -5.91208e-04
       O  4.10628e-04  6.94644e-04 -1.20191e-03
       H  2.04099e-03 -4.33517e-03 -1.04255e-03
       H  2.95221e-03  2.04380e-03  3.77009e-04
       O -1.14476e-03  1.21636e-03  1.55385e-03
       H -1.15959e-03 -7.38018e-03 -5.59723e-04
       H  5.09165e-03  4.46162e-03  1.93523e-03
       O  5.18246e-04 -5.12772e-04  1.18520e-03
       H  2.09512e-03  4.20559e-04 -3.10223e-03
       H -1.56653e-03  6.05256e-03  2.67155e-03
       O -7.23078e-06 -1.01590e-03 -1.44074e-03
       H  2.96587e-03  4.53327e-04  4.45127e-03
       H -4.39846e-03 -1.06578e-03 -3.04693e-03
       O  6.51389e-04 -1.40680e-04  4.95540e-04
       H -3.25744e-03  2.56159e-03  2.34532e-03
       H -1.55351e-03  1.28678e-03  9.87147e-04
       O -1.31683e-03  4.64052e-04 -3.63020e-04
       H -3.28306e-03 -1.55646e-03  1.99840e-03
       H -6.91205e-04  2.13879e-03  1.64649e-03
       O  1.47614e-05 -9.45219e-04  6.64981e-04
       H -4.49204e-03  5.92955e-04 -4.20758e-03
       H -3.52270e-03 -3.12608e-03  3.80361e-03
       O  5.28204e-04 -1.09771e-03  1.53555e-03
       H  6.36438e-03 -1.16626e-02 -1.97740e-04
       H  2.82874e-03 -3.80915e-03 -5.50464e-03
       O -5.79028e-04 -1.12418e-03  1.95199e-03
       H  7.01580e-03 -1.72782e-03  3.23490e-03
       H  5.15125e-04 -1.33320e-03 -9.47141e-04
       O  8.34146e-04 -6.82193e-04 -8.71282e-05
       H  1.31052e-03 -2.86779e-03  1.82576e-03
       H  4.33970e-03  3.53347e-03 -2.64852e-03
       O  1.94211e-03  1.03048e-03  1.12727e-03
       H -1.24946e-03 -3.04425e-03 -2.09995e-04
       H -2.40881e-03  3.84357e-03 -5.90451e-03
192
# CELL(abcABC):   16.99620    29.43815    27.67315    90.00000    90.00000    90.00000  Step:          10  Bead:       5 velocities{atomic_unit}  cell{atomic_unit}
       O -6.71226e-04 -4.37175e-04  4.41361e-04
       H -4.64519e-04 -1.59592e-03  6.34391e-03
       H  1.55134e-03 -3.56704e-03 -4.83810e-03
       O  5.05921e-04 -3.00812e-04 -2.91622e-05
       H  9.37375e-04 -3.78697e-03 -5.60292e-03
       H -1.09327e-03 -7.23933e-03 -2.35532e-03
       O -3.66164e-04  4.95450e-04 -1.27593e-04
       H -9.51089e-03  2.27154e-03 -2.89611e-03
       H -1.00016e-04 -3.89897e-03  1.36398e-03
       O  1.46147e-03 -4.93362e-05  1.05273e-03
       H -3.47150e-04 -2.99847e-03  2.54047e-03
       H  3.60476e-03 -1.10756e-03 -2.83457e-03
       O  1.66490e-04  1.15639e-04  1.06091e-03
       H -2.79573e-04  4.49333e-04  6.24277e-03
       H  8.33997e-03 -2.84175e-03 -3.22807e-03
       O  5.97060e-04  1.86867e-03  1.98166e-04
       H  1.89715e-03  4.64395e-03 -2.65948e-03
       H  2.01965e-03  3.26931e-04 -2.30734e-03
       O -4.08173e-04  1.02225e-03 -8.13365e-04
       H -2.10917e-03 -1.53843e-03 -4.11833e-04
       H  2.03503e-03 -1.01521e-03  7.21985e-04
       O -6.02062e-04  2.56291e-03  1.69041e-03
       H -3.54610e-03  2.36710e-04 -1.82602e-03
       H -4.96300e-04  1.23159e-03 -3.59003e-04
       O -1.48975e-03  4.00101e-05 -3.42570e-04
       H  3.93138e-03  2.77970e-03 -7.03176e-04
       H -6.88449e-03 -2.02212e-03 -5.48324e-03
       O  4.76585e-04 -1.33165e-03  1.81630e-04
       H  3.15800e-03  2.52457e-03 -3.70163e-03
       H  5.44886e-03 -1.12134e-03  7.51411e-03
       O  1.55232e-04  4.19907e-04 -1.05963e-03
       H -3.41109e-04 -2.60694e-04  2.43626e-03
       H -7.06400e-04 -1.89007e-03  1.66008e-03
       O  3.82476e-04 -1.04266e-03 -2.26337e-04
       H  7.90160e-04  4.02313e-03 -2.05765e-04
       H  6.41758e-04  3.68346e-03 -4.35373e-03
       O  1.22547e-03 -1.63658e-03  1.26650e-03
       H  4.40912e-03  5.00393e-03  2.33206e-03
       H  1.61048e-03  5.75273e-04  2.66562e-03
       O  1.28635e-03 -1.07467e-03 -7.68110e-04
       H -5.59595e-04 -2.06175e-03  6.26291e-04
       H -2.04478e-03  1.22436e-03  4.02748e-03
       O -6.39933e-04  6.69906e-04 -1.84597e-03
       H -3.91185e-03 -3.32593e-03 -1.89765e-03
       H  3.55548e-03  1.83246e-03  7.69358e-03
       O -6.12635e-04 -3.93285e-05  1.45773e-03
       H  3.46411e-03  1.10970e-03 -3.76865e-03
       H  6.95758e-04  1.37515e-04 -9.32563e-04
       O  9.32095e-04 -1.02633e-05 -1.85521e-03
       H  2.21371e-03  4.38095e-03 -4.33276e-04
       H -3.87964e-03  4.78573e-03 -3.26387e-03
       O  2.95613e-04  3.94047e-04 -5.64517e-04
       H -2.18474e-03 -2.79802e-03  4.71794e-03
       H -1.59112e-03  9.07845e-04 -1.82577e-03
       O  1.52478e-03  1.76447e-03 -1.61833e-04
       H -3.20445e-03  2.45663e-03 -3.69404e-04
       H -3.06945e-03  2.00818e-03  3.72839e-03
       O  3.03316e-04 -3.54818e-04  3.86598e-04
       H  2.39695e-03 -3.18237e-03  6.71096e-04
       H -4.95354e-03  4.04942e-04 -2.56153e-03
       O  7.15718e-04  2.89693e-04  5.82309e-04
       H -8.35790e-05 -1.96992e-03 -5.26609e-04
       H -1.78216e-03 -3.74736e-03  3.50693e-03
       O -1.27105e-03  1.21516e-03  3.63917e-04
       H -3.98369e-03 -8.73311e-05 -2.42966e-03
       H -5.25330e-03 -8.23968e-04  7.04630e-03
       O -2.70171e-04  2.52238e-04  2.16990e-04
       H  1.78617e-03 -2.95981e-03 -2.74079e-03
       H -2.89073e-03 -9.07933e-03 -1.94745e-03
       O -6.71001e-04  2.45075e-04  9.02864e-04
       H -2.62887e-03 -6.83991e-03 -5.85752e-04
       H -1.97184e-03 -3.60327e-04 -1.30492e-03
       O -9.39808e-04  2.60020e-04  1.66020e-04
       H  1.75930e-04  1.47334e-03  6.75387e-05
       H  4.42461e-04  1.47283e-03  6.89709e-03
       O -8.67419e-04 -8.59165e-04 -2.87600e-04
       H  1.50223e-03  2.66458e-03  6.08131e-03
       H -3.20001e-03 -7.58825e-03  1.15973e-03
       O -4.95642e-04 -1.05352e-03 -1.09220e-03
       H  2.67697e-04  4.51201e-04  4.58703e-03
       H -8.25113e-03  2.65228e-03 -1.54833e-03
       O -3.30213e-05  3.93417e-04 -9.01451e-04
       H  2.98062e-03 -2.80521e-03  1.30590e-04
       H -2.41765e-03  5.64152e-03 -6.84980e-03
       O  5.85897e-04  7.10281e-04  8.77698e-05
       H -6.84164e-03  2.97821e-03  1.88876e-03
       H -8.82048e-03 -3.75897e-03 -1.03556e-02
       O -7.05239e-04  3.92065e-04 -1.17433e-03
       H -6.57857e-04 -1.42667e-04  7.23995e-03
       H  2.75300e-03 -5.55421e-04 -7.41239e-04
       O  2.16263e-04  1.03175e-03 -4.80488e-05
       H  4.23418e-03  3.63363e-03  2.14304e-03
       H -1.60013e-03  1.65870e-03 -8.55309e-04
       O  6.09692e-04  1.71173e-03 -5.56826e-04
       H -3.16043e-03 -8.54908e-04 -5.21186e-04
       H  1.11943e-04  3.15080e-03  3.30323e-03
       O  9.99801e-04 -3.90285e-04 -6.79905e-05
       H -1.41154e-03 -3.02096e-04  2.13961e-03
       H  2.61403e-04 -1.74093e-03  2.77075e-03
       O  6.61494e-04  1.53552e-03 -1.48781e-04
       H -1.56285e-03 -1.46187e-03  3.42262e-04
       H  3.03505e-03 -4.48411e-03  1.59397e-03
       O -1.38170e-03 -8.52703e-04  8.86093e-05
       H  4.42760e-03  4.82680e-03 -1.86235e-03
       H  2.73670e-03 -2.23064e-03  2.03047e-03
       O -1.11135e-03 -9.74082e-04  1.31764e-03
       H -1.22316e-03 -7.54963e-03  1.70974e-03
       H -6.26910e-04  4.13804e-03  1.96521e-03
       O  1.91081e-04  4.34851e-04 -1.18622e-03
       H -1.56505e-03 -1.19012e-03  3.91079e-03
       H -5.96912e-03 -4.73854e-03 -5.82870e-04
       O -1.78664e-03  6.38716e-04 -4.50316e-04
       H -3.28471e-04 -4.52500e-03 -8.69081e-04
       H  1.04220e-03 -1.11809e-03 -2.79592e-03
       O  9.13189e-04  7.06089e-04  4.86883e-04
       H  3.45121e-03  1.51375e-03  4.63074e-03
       H  6.99503e-04  1.67660e-03 -4.84877e-04
       O -8.51840e-04  1.50188e-04 -1.48631e-03
       H -1.78090e-04  4.38964e-03 -2.34404e-04
       H -1.24658e-03  1.62596e-03 -8.65677e-03
       O  1.14586e-03  9.22730e-04  7.18505e-04
       H -6.20152e-03 -5.93275e-03 -5.66681e-03
       H  1.66572e-03  5.71809e-03 -1.08865e-03
       O  2.08953e-04 -4.33097e-04  6.84471e-04
       H  7.58531e-04  8.62765e-04 -7.17278e-04
       H -3.45954e-03 -2.05619e-03 -6.92865e-04
       O  3.19202e-04  1.92132e-03  1.22871e-03
       H -2.93331e-03  2.90801e-03  7.77511e-04
       H -1.75388e-03  4.47561e-03  2.14245e-03
       O -1.04476e-04  1.19729e-03  6.26184e-05
       H -7.94571e-03  3.34408e-03 -9.87175e-04
       H -2.60975e-03 -1.07697e-04  6.22688e-03
       O  8.89846e-05 -2.80902e-04 -1.18601e-03
       H  1.38407e-04  5.95837e-03 -4.86072e-03
       H  1.99983e-03 -4.86286e-04 -3.46958e-03
       O -9.00182e-05  2.26045e-04  5.12924e-04
       H  1.56897e-03  2.01230e-03 -7.79537e-03
       H  3.14750e-03  1.20827e-03 -1.14372e-03
       O -9.95981e-04  1.89428e-03  9.08588e-04
       H  4.69231e-03 -1.39939e-04  4.12823e-03
       H -5.66276e-03  2.80715e-03  2.73926e-03
       O -1.09154e-03  1.35088e-04 -1.38271e-03
       H  8.63212e-04 -2.13453e-03 -1.79318e-04
       H  7.16129e-03  2.89109e-03  2.93685e-03
       O  3.52282e-04 -4.60321e-04  4.21865e-05
       H -5.12211e-03  3.22062e-03 -4.00326e-04
       H  4.07436e-03 -1.92783e-03 -1.00244e-03
       O  1.52642e-03 -8.18533e-04 -5.14918e-04
       H  2.17477e-03 -6.42386e-03  4.20987e-03
       H -2.21303e-03  4.25200e-03  1.64516e-03
       O  4.36049e-05  3.41127e-04  2.18102e-04
       H -3.85896e-03 -4.29696e-03  2.75612e-03
       H  1.15753e-03  2.12326e-03 -4.19850e-03
       O -7.04184e-04  1.74200e-04  1.94805e-04
       H  2.02019e-03  1.21434e-03 -1.24294e-03
       H -2.15481e-03 -3.86669e-03  4.38743e-04
       O -1.77965e-03 -4.94357e-06  2.52790e-05
       H -4.00516e-03 -6.38429e-03  9.40621e-03
       H  1.87400e-03  2.17394e-03  4.03209e-03
       O  7.34747e-04  8.08850e-04  1.03538e-03
       H  4.30883e-03 -2.80708e-03 -6.89290e-03
       H  3.15338e-03  1.61545e-03  4.50169e-03
       O  1.71740e-03  4.09219e-04  9.16640e-04
       H  2.48416e-03  1.97161e-03  1.41691e-03
       H -3.05728e-03 -1.64429e-04  2.20323e-03
       O  1.07884e-03  9.24845e-05 -9.59741e-04
       H -1.20549e-03 -8.15663e-04 -5.27917e-03
       H -2.29527e-03 -7.67393e-03  7.59581e-04
       O  6.64620e-04 -1.75530e-03 -9.41636e-04
       H  7.29651e-04 -2.66700e-03  4.49400e-03
       H  7.29034e-03 -2.61375e-03  3.35157e-03
       O -1.12585e-03 -2.99307e-04  6.84894e-04
       H  1.75988e-03 -2.34714e-03  2.25531e-03
       H -3.00966e-03  2.59571e-04 -2.78554e-03
       O -2.33909e-04 -2.33759e-03 -7.83664e-05
       H -3.11161e-04  4.60667e-03 -2.01717e-03
       H  5.33710e-03  1.47134e-03  4.87193e-04
       O -8.45511e-04  5.30428e-04 -3.24269e-03
       H  1.93605e-03 -8.37332e-04 -7.64039e-04
       H -1.28975e-03  1.15838e-03  2.60961e-03
       O -2.23753e-03  2.40276e-04 -2.05652e-03
       H -1.29421e-03 -5.74963e-03 -1.00675e-03
       H  2.59748e-03  1.72874e-03  3.88488e-03
       O  1.34146e-05  1.06059e-03  5.06041e-04
       H -1.97589e-03 -3.13128e-04 -3.26609e-03
       H -3.44105e-03  7.04835e-03  1.59572e-03
       O -1.35354e-04  2.05315e-03 -2.11121e-04
       H  2.31877e-03  4.49086e-04 -5.03179e-03
       H  3.80868e-03 -5.51305e-03  2.73390e-03
       O  1.57494e-03  8.34300e-05  6.62589e-04
       H -9.33651e-06  4.25189e-03 -3.67202e-03
       H -4.51917e-03  4.45646e-03 -2.30132e-03
192
# CELL(abcABC):   16.99620    29.43815    27.67315    90.00000    90.00000    90.00000  Step:          20  Bead:       5 velocities{atomic_unit}  cell{atomic_unit}
       O -7.48679e-04 -1.40523e-03  1.05320e-03
       H -4.52858e-03 -3.05942e-03  5.30883e-03
       H  3.98577e-03 -2.37816e-03  2.56292e-03
       O  9.20322e-04 -6.44287e-04  1.14615e-04
       H  2.48554e-04 -1.86663e-03  1.89303e-03
       H  2.11025e-03  2.46857e-03  5.40925e-03
       O  4.96942e-04 -1.74278e-03 -8.02476e-04
       H  4.64940e-03 -3.79235e-03 -3.15512e-03
       H -5.26285e-03 -1.46653e-03  1.32173e-03
       O -1.53150e-03  1.75915e-04  6.50933e-04
       H -4.81621e-03 -1.15294e-04  2.14590e-04
       H -1.95067e-03 -2.21934e-03 -8.03867e-03
       O  7.56051e-04 -1.22629e-03  2.54623e-04
       H  7.34629e-03  7.44114e-04 -8.28199e-04
       H  1.75376e-03 -2.34835e-03  2.90395e-03
       O  3.28854e-05 -1.05347e-03  5.78810e-04
       H -2.14561e-03  1.14366e-03 -7.09387e-03
       H  1.17147e-03  1.39118e-03  1.98470e-03
       O  1.40493e-03 -1.90283e-03  4.61583e-04
       H -5.96961e-03  2.93444e-03 -4.77615e-03
       H -8.58573e-03  2.06193e-03  1.78367e-03
       O -3.20658e-05 -2.08537e-04 -1.56121e-04
       H  3.66395e-03 -7.89438e-03  5.50479e-03
       H  8.86883e-04 -1.97479e-03  5.36750e-03
       O -1.01605e-03 -6.83638e-04  1.83375e-06
       H  1.15259e-03 -2.77642e-03  3.93155e-03
       H -3.04812e-03 -2.75912e-03 -2.19313e-03
       O -8.77450e-04 -5.40139e-04  2.49432e-03
       H  4.58485e-03  1.83450e-03 -1.35549e-04
       H -1.28641e-03  3.02532e-03  5.01372e-03
       O  6.74642e-05 -1.47713e-04  1.02957e-03
       H -2.94998e-03  2.53870e-03 -4.63827e-03
       H  2.02494e-03 -1.60522e-03 -1.48838e-03
       O -1.25983e-03  9.41770e-04 -1.34937e-03
       H  5.09461e-04 -1.21292e-03  3.43446e-03
       H -1.50967e-03  1.88393e-04 -1.14569e-03
       O  3.76826e-04 -2.30162e-03 -1.74228e-03
       H -7.53805e-03 -5.54727e-03  1.39120e-03
       H -1.34137e-03  2.68210e-03 -6.58032e-03
       O  8.84562e-04  2.56053e-04 -8.97404e-04
       H  4.59963e-03  8.01707e-04 -2.47416e-03
       H  1.37804e-03  1.99966e-03 -2.82059e-03
       O  3.87151e-04  5.39134e-04  2.08653e-04
       H -4.55126e-03 -5.08137e-03 -2.03677e-03
       H -6.55248e-04  5.31670e-03  5.86449e-03
       O -1.31035e-03 -1.12308e-04 -3.15784e-04
       H -9.65623e-04 -4.57119e-03 -5.50603e-03
       H  6.67369e-03 -1.56483e-03  2.06238e-03
       O  4.13020e-04  7.92818e-04 -1.24527e-03
       H -3.01175e-03 -3.01657e-03 -7.99154e-03
       H -4.71785e-03 -6.17536e-03  2.73809e-03
       O -8.60504e-05  1.65228e-03  6.67073e-04
       H -2.64621e-03 -5.28898e-03  1.18534e-04
       H -1.98164e-03 -2.03552e-03  4.47798e-03
       O  1.64413e-04 -1.40148e-03 -1.30658e-03
       H -8.48801e-03  5.57066e-03 -2.52260e-03
       H -2.13186e-04 -3.32316e-03  4.45767e-04
       O  1.58689e-03  7.80635e-04 -4.90713e-04
       H  2.69425e-04 -8.01426e-04 -1.00812e-03
       H  3.56068e-03  4.64639e-03 -1.41913e-03
       O -1.36981e-03 -4.47949e-04 -2.35611e-03
       H -1.25267e-03 -3.92117e-03  6.04123e-04
       H -5.18575e-04  2.77616e-03  1.73139e-03
       O -8.57789e-04 -6.73222e-04  1.20167e-04
       H  2.11238e-03 -7.29669e-04 -4.85559e-03
       H  1.67856e-04 -3.29917e-03 -5.19410e-03
       O  4.50701e-04 -1.53293e-04  6.36041e-05
       H  8.05367e-03  2.36813e-03 -2.72344e-03
       H -5.90560e-03  1.47157e-03 -1.70426e-03
       O  9.58735e-04  3.73912e-04 -9.06905e-04
       H -2.74874e-03 -1.19008e-03  3.15797e-03
       H -1.63274e-03 -1.41248e-03 -3.36357e-03
       O -5.16749e-04  7.96127e-04  6.83616e-04
       H  2.06907e-03  3.89252e-04  1.51022e-03
       H -4.28986e-03  2.48716e-03 -7.89675e-04
       O  1.40725e-03 -1.95585e-04 -1.95549e-04
       H  1.42678e-03  5.01834e-03 -1.26055e-03
       H  8.28502e-03 -6.81678e-03 -8.10560e-04
       O  3.77197e-04 -1.02276e-03 -6.65720e-04
       H  6.59995e-03  1.10966e-03 -6.06086e-03
       H  7.75909e-04 -5.74255e-03  9.35075e-04
       O -3.91900e-04 -1.21046e-03 -6.64526e-04
       H  5.38848e-03  2.73618e-03 -3.62190e-03
       H  5.11070e-03 -6.49458e-03  6.27823e-03
       O -5.66176e-04 -3.28129e-04  3.25057e-04
       H  4.75088e-04  5.34129e-04 -3.39726e-03
       H  2.58759e-04 -4.22358e-03  1.57036e-03
       O  1.35618e-03  9.76150e-04 -8.75334e-04
       H  1.79683e-03  1.18188e-03  5.22404e-04
       H -3.46141e-03 -3.26678e-04 -1.23408e-03
       O -4.67055e-04 -1.49949e-03 -5.51178e-04
       H -2.83850e-04  5.00856e-03 -1.27466e-03
       H  1.58108e-04 -3.54686e-03 -2.69197e-04
       O  3.35746e-04 -8.04745e-04  1.91329e-03
       H  2.33275e-03  1.91066e-03 -4.63464e-03
       H -2.48563e-03  1.19279e-03 -7.43553e-03
       O  9.08402e-04  2.29099e-03 -7.64000e-04
       H -2.44618e-03  2.32656e-03  1.77019e-04
       H  5.13281e-04 -3.26495e-03 -2.97892e-03
       O  1.37188e-03  8.21081e-04  2.05379e-03
       H -1.74378e-03 -5.75452e-03 -2.34186e-03
       H -2.41633e-03  4.08130e-03  2.24236e-03
       O  1.91605e-03  1.40408e-03  4.81510e-04
       H -3.22806e-03  1.69318e-03 -8.57011e-04
       H  3.50960e-03 -3.39530e-03 -2.70922e-03
       O  1.10252e-03 -2.11989e-04  3.84220e-04
       H  1.96239e-03 -6.24988e-03 -5.93671e-04
       H -3.13940e-03 -4.86646e-03 -2.78692e-03
       O -1.27458e-03 -7.14942e-04  4.20047e-04
       H -2.04713e-03 -1.81913e-03  3.72233e-03
       H  1.40904e-05  8.17299e-03 -3.38525e-03
       O -3.33373e-04  1.10790e-03 -1.30569e-03
       H  4.21149e-03  5.25098e-03  4.94729e-03
       H -7.11136e-03  2.02366e-03  3.81308e-03
       O  3.68112e-04  1.87974e-03  9.83986e-04
       H -3.43330e-03 -1.73784e-03 -2.28456e-03
       H  3.60584e-04 -3.59950e-03  6.31178e-04
       O -1.00492e-03 -1.43693e-04 -9.66515e-04
       H -2.63484e-03  6.55637e-03  9.18956e-04
       H -4.53476e-03 -4.08252e-03 -3.61793e-03
       O -4.49754e-04 -4.11342e-04 -6.51251e-04
       H -1.41833e-03 -3.23695e-03 -3.94940e-03
       H  8.14521e-03 -7.00522e-03  9.51624e-04
       O  2.38198e-03 -1.12467e-03  1.73401e-03
       H  6.21464e-03 -2.47621e-03 -3.95792e-03
       H  1.06678e-03 -1.89048e-03  2.23859e-03
       O -4.85890e-04  6.18764e-04  8.78690e-04
       H  6.90565e-03 -3.60260e-03  4.93442e-03
       H  7.09001e-03 -5.27078e-03  2.28981e-03
       O  3.87561e-04 -4.48980e-04  2.65615e-04
       H  4.53206e-03  1.19674e-03 -7.52014e-04
       H  1.75912e-03 -4.29494e-03 -6.84442e-04
       O  5.47935e-04 -3.94606e-04 -1.46965e-03
       H  1.51807e-03 -3.84566e-04 -1.11700e-03
       H  7.77771e-04 -9.99260e-05  8.41935e-04
       O -7.43421e-04 -6.56396e-04 -1.02058e-04
       H  2.52702e-03  1.58040e-03  7.63174e-04
       H  3.01057e-03  1.13959e-03  4.41575e-03
       O  1.45744e-03 -1.55203e-03 -2.58601e-04
       H -8.51488e-03 -2.86053e-03  1.06732e-03
       H -2.28498e-04 -5.21570e-04  2.62450e-03
       O  1.12131e-03  1.66973e-04  7.17319e-04
       H -2.66535e-04  2.89236e-03 -1.42466e-03
       H  1.31874e-03 -5.49326e-03  4.18236e-03
       O -5.87734e-04  4.48756e-04  6.81725e-04
       H -3.00356e-03 -1.42568e-03 -1.92702e-03
       H -1.91854e-03 -6.23818e-03  7.12806e-03
       O -4.25804e-05  1.12319e-03 -6.00080e-04
       H  2.69909e-04  2.03117e-03 -4.11947e-03
       H -2.81030e-03  3.08119e-03 -6.40035e-04
       O  7.52807e-04 -4.65386e-05  8.68930e-04
       H  6.95417e-03 -1.22364e-03 -5.74668e-03
       H -1.60213e-03 -2.38279e-03 -3.73821e-03
       O -4.13080e-04 -5.44327e-04  4.34015e-04
       H -8.16441e-04 -1.64133e-03 -6.32582e-04
       H -4.18432e-03 -7.55523e-04 -2.75306e-03
       O -6.73671e-05 -1.37034e-03 -9.62130e-04
       H  5.07519e-03  1.47176e-03 -2.76866e-03
       H  1.16900e-03  2.16984e-03 -2.79203e-03
       O -3.50466e-04 -6.92810e-05  3.20278e-04
       H -1.87875e-03  5.29478e-03  2.42021e-03
       H  8.17101e-04  1.81260e-03 -4.32031e-03
       O -2.61900e-04  1.11736e-03  5.69684e-04
       H -1.12176e-03  4.01380e-03 -6.77487e-03
       H -8.83063e-04  1.78810e-03  4.02806e-03
       O  1.06629e-03 -1.77585e-04 -1.69906e-04
       H  2.95875e-03 -4.06451e-03  8.48320e-04
       H -3.46181e-04  8.92632e-03 -6.40778e-03
       O -9.96230e-04 -8.19673e-04  9.76516e-04
       H  2.76268e-03 -1.07451e-03 -2.98711e-03
       H  2.08190e-03  1.68257e-03 -1.97078e-03
       O  1.93891e-03 -9.99545e-05 -3.83064e-04
       H -3.78220e-03 -3.77995e-03 -3.70405e-04
       H -3.53348e-03  9.87423e-04  6.53413e-03
       O  1.24633e-03  2.38014e-03 -7.88261e-04
       H  6.48093e-03 -7.37184e-04  5.36030e-04
       H  3.64713e-03  9.37838e-04  1.24892e-03
       O -3.27559e-05  1.13634e-04  3.74513e-04
       H  4.53844e-04  1.24167e-03  3.18798e-03
       H -2.24052e-03  2.08994e-03 -4.14029e-03
       O  1.33100e-03  3.26692e-04  5.73732e-04
       H -3.72289e-03  1.07594e-02 -4.60381e-03
       H  8.44985e-03 -5.09778e-03 -2.56496e-03
       O  1.19733e-03 -1.22159e-03  7.81716e-04
       H -4.57379e-03  3.61849e-03 -1.43039e-03
       H -1.38032e-03  1.29497e-03 -5.26458e-04
       O -1.43396e-03  9.82763e-04 -6.07157e-04
       H  2.35312e-03 -3.33203e-03  5.39348e-03
       H  1.88273e-03  2.46105e-03  4.85499e-03
       O  1.01064e-03  7.95715e-04 -5.04358e-04
       H  3.01751e-03  2.94442e-03  2.49153e-03
       H -9.64899e-04 -2.35803e-03 -2.18666e-03
192
# CELL(abcABC):   16.99620    29.43815    27.67315    90.00000    90.00000    90.00000  Step:          30  Bead:       5 velocities{atomic_unit}  cell{atomic_unit}
       O  1.32820e-03 -5.80467e-04  8.31878e-04
       H  2.11853e-03  2.68616e-03  1.74500e-03
       H  1.41943e-03 -7.97272e-03 -1.51794e-03
       O -4.81685e-04 -4.70657e-04  1.01038e-03
       H -3.04975e-03  1.96939e-03  9.06533e-04
       H -5.32314e-04  3.16409e-03  2.15413e-03
       O -5.74759e-04  5.02877e-04 -2.10863e-04
       H  2.92758e-03 -3.01822e-03  1.70134e-03
       H  5.57143e-04  2.37154e-03 -1.20761e-04
       O  1.26841e-04  1.42346e-03 -1.20574e-04
       H -7.12591e-03  3.65947e-03  4.97486e-03
       H -6.00061e-03  9.41295e-03  7.23628e-03
       O  8.25440e-04 -7.30844e-04  4.83620e-04
       H  2.05519e-03 -2.05382e-03 -3.15293e-03
       H -9.02519e-03  9.41369e-04 -4.27452e-03
       O  6.22443e-04  9.41529e-04  4.80304e-04
       H  4.75727e-03  6.83015e-06 -1.06354e-03
       H  4.62381e-04  3.04585e-03 -3.92801e-04
       O  6.36205e-05  1.13750e-05  5.95905e-04
       H -2.59463e-03 -4.23172e-03  1.39300e-03
       H -3.66495e-03 -1.42000e-03 -1.24929e-03
       O  1.05490e-03 -9.07214e-04  4.25979e-04
       H -5.70232e-03  3.64798e-03 -5.15010e-03
       H -1.64471e-03 -4.05793e-03  1.77903e-03
       O  7.06412e-04 -1.94090e-03  5.67152e-04
       H -1.06082e-04  1.85228e-03  8.02336e-04
       H -1.53962e-03 -3.98531e-03  3.25922e-03
       O -1.88064e-03 -9.08736e-05 -8.04409e-04
       H  1.91658e-03 -8.37797e-04 -3.72095e-03
       H  4.00057e-03 -3.76514e-03  1.20165e-03
       O -1.87974e-03  2.00469e-03 -1.14490e-05
       H -2.30120e-03 -1.86187e-04  1.33108e-03
       H -3.71775e-03  4.81593e-03 -2.60294e-03
       O -1.62805e-04  1.17797e-03 -6.58774e-04
       H  3.39392e-03 -2.16229e-04  1.73654e-04