192
# CELL(abcABC):   16.99620    29.43815    27.67315    90.00000    90.00000    90.00000  Step:           0  Bead:      14 positions{atomic_unit}  cell{atomic_unit}
       O -8.22215e+00 -9.94239e+00 -1.31733e+01
       H  7.30664e+00 -1.09711e+01 -1.36322e+01
       H -6.70615e+00 -1.09482e+01 -1.35006e+01
       O -3.97298e+00 -2.58228e+00 -1.31734e+01
       H -5.44033e+00 -3.61131e+00 -1.36317e+01
       H -2.45697e+00 -3.58820e+00 -1.35005e+01
       O -3.95756e+00 -1.25543e+01 -7.82386e-01
       H -3.95604e+00 -1.43515e+01 -2.29143e-01
       H -4.14759e+00 -1.25671e+01 -2.59983e+00
       O -8.20667e+00 -5.19495e+00 -7.82227e-01
       H -8.20527e+00 -6.99211e+00 -2.28860e-01
       H -8.39642e+00 -5.20788e+00 -2.59970e+00
       O -4.52495e+00 -1.21366e+01 -6.25523e+00
       H -6.04104e+00 -1.11308e+01 -6.58223e+00
       H -3.05766e+00 -1.11077e+01 -6.71383e+00
       O  8.22247e+00 -4.77716e+00 -6.25561e+00
       H  6.70639e+00 -3.77128e+00 -6.58235e+00
       H -7.30644e+00 -3.74813e+00 -6.71411e+00
       O  8.20650e+00 -9.52435e+00 -7.70064e+00
       H  8.39647e+00 -9.51190e+00 -9.51809e+00
       H  8.20529e+00 -7.72704e+00 -7.14768e+00
       O -4.54027e+00 -2.16431e+00 -7.70075e+00
       H -4.35006e+00 -2.15153e+00 -9.51816e+00
       H -4.54166e+00 -3.67089e-01 -7.14744e+00
       O -8.22211e+00 -9.94193e+00  6.63469e-01
       H  7.30672e+00 -1.09707e+01  2.04633e-01
       H -6.70609e+00 -1.09478e+01  3.36365e-01
       O -3.97290e+00 -2.58257e+00  6.63081e-01
       H -5.44032e+00 -3.61148e+00  2.04655e-01
       H -2.45688e+00 -3.58848e+00  3.35971e-01
       O -3.95760e+00 -1.25545e+01  1.30538e+01
       H -3.95614e+00 -1.43517e+01  1.36071e+01
       H -4.14757e+00 -1.25673e+01  1.12363e+01
       O -8.20656e+00 -5.19529e+00  1.30545e+01
       H -8.20517e+00 -6.99250e+00  1.36078e+01
       H -8.39634e+00 -5.20824e+00  1.12370e+01
       O -4.52490e+00 -1.21367e+01  7.58138e+00
       H -6.04102e+00 -1.11309e+01  7.25435e+00
       H -3.05757e+00 -1.11078e+01  7.12272e+00
       O  8.22232e+00 -4.77760e+00  7.58065e+00
       H  6.70627e+00 -3.77169e+00  7.25392e+00
       H -7.30657e+00 -3.74862e+00  7.12211e+00
       O  8.20656e+00 -9.52478e+00  6.13597e+00
       H  8.39651e+00 -9.51229e+00  4.31849e+00
       H  8.20527e+00 -7.72747e+00  6.68889e+00
       O -4.54025e+00 -2.16471e+00  6.13560e+00
       H -4.34999e+00 -2.15183e+00  4.31818e+00
       H -4.54168e+00 -3.67533e-01  6.68897e+00
       O -8.22212e+00  4.77724e+00 -1.31733e+01
       H  7.30671e+00  3.74833e+00 -1.36320e+01
       H -6.70607e+00  3.77135e+00 -1.35002e+01
       O -3.97288e+00  1.21369e+01 -1.31734e+01
       H -5.44030e+00  1.11079e+01 -1.36317e+01
       H -2.45689e+00  1.11310e+01 -1.35006e+01
       O -3.95757e+00  2.16435e+00 -7.82368e-01
       H -3.95607e+00  3.67109e-01 -2.29207e-01
       H -4.14756e+00  2.15166e+00 -2.59983e+00
       O -8.20667e+00  9.52420e+00 -7.81868e-01
       H -8.20527e+00  7.72699e+00 -2.28645e-01
       H -8.39652e+00  9.51128e+00 -2.59932e+00
       O -4.52494e+00  2.58246e+00 -6.25501e+00
       H -6.04100e+00  3.58821e+00 -6.58223e+00
       H -3.05758e+00  3.61139e+00 -6.71360e+00
       O  8.22236e+00  9.94146e+00 -6.25587e+00
       H  6.70631e+00  1.09474e+01 -6.58279e+00
       H -7.30653e+00  1.09705e+01 -6.71435e+00
       O  8.20665e+00  5.19438e+00 -7.70097e+00
       H  8.39659e+00  5.20693e+00 -9.51844e+00
       H  8.20533e+00  6.99167e+00 -7.14797e+00
       O -4.54026e+00  1.25545e+01 -7.70081e+00
       H -4.34992e+00  1.25674e+01 -9.51823e+00
       H -4.54169e+00  1.43517e+01 -7.14749e+00
       O -8.22210e+00  4.77691e+00  6.62996e-01
       H  7.30665e+00  3.74808e+00  2.04431e-01
       H -6.70613e+00  3.77091e+00  3.36028e-01
       O -3.97279e+00  1.21369e+01  6.63306e-01
       H -5.44019e+00  1.11079e+01  2.05006e-01
       H -2.45681e+00  1.11309e+01  3.36133e-01
       O -3.95757e+00  2.16479e+00  1.30545e+01
       H -3.95616e+00  3.67575e-01  1.36077e+01
       H -4.14769e+00  2.15200e+00  1.12370e+01
       O -8.20659e+00  9.52434e+00  1.30546e+01
       H -8.20522e+00  7.72713e+00  1.36079e+01
       H -8.39644e+00  9.51145e+00  1.12371e+01
       O -4.52499e+00  2.58228e+00  7.58148e+00
       H -6.04100e+00  3.58814e+00  7.25437e+00
       H -3.05766e+00  3.61126e+00  7.12297e+00
       O  8.22229e+00  9.94203e+00  7.58108e+00
       H  6.70627e+00  1.09480e+01  7.25419e+00
       H -7.30655e+00  1.09710e+01  7.12260e+00
       O  8.20668e+00  5.19493e+00  6.13567e+00
       H  8.39670e+00  5.20749e+00  4.31823e+00
       H  8.20535e+00  6.99219e+00  6.68874e+00
       O -4.54018e+00  1.25546e+01  6.13603e+00
       H -4.34989e+00  1.25674e+01  4.31861e+00
       H -4.54161e+00  1.43518e+01  6.68925e+00
       O  2.75877e-01 -9.94198e+00 -1.31737e+01
       H -1.19147e+00 -1.09709e+01 -1.36323e+01
       H  1.79191e+00 -1.09478e+01 -1.35009e+01
       O  4.52479e+00 -2.58220e+00 -1.31736e+01
       H  3.05750e+00 -3.61120e+00 -1.36322e+01
       H  6.04084e+00 -3.58815e+00 -1.35003e+01
       O  4.54038e+00 -1.25538e+01 -7.82378e-01
       H  4.54166e+00 -1.43510e+01 -2.29173e-01
       H  4.35042e+00 -1.25666e+01 -2.59983e+00
       O  2.91382e-01 -5.19489e+00 -7.82498e-01
       H  2.92775e-01 -6.99208e+00 -2.29179e-01
       H  1.01240e-01 -5.20770e+00 -2.59994e+00
       O  3.97307e+00 -1.21369e+01 -6.25482e+00
       H  2.45707e+00 -1.11310e+01 -6.58187e+00
       H  5.44043e+00 -1.11080e+01 -6.71350e+00
       O -2.76167e-01 -4.77714e+00 -6.25484e+00
       H -1.79215e+00 -3.77120e+00 -6.58193e+00
       H  1.19122e+00 -3.74822e+00 -6.71327e+00
       O -2.91294e-01 -9.52406e+00 -7.70061e+00
       H -1.01153e-01 -9.51128e+00 -9.51804e+00
       H -2.92737e-01 -7.72684e+00 -7.14734e+00
       O  3.95740e+00 -2.16468e+00 -7.70029e+00
       H  4.14711e+00 -2.15178e+00 -9.51779e+00
       H  3.95613e+00 -3.67477e-01 -7.14700e+00
       O  2.75838e-01 -9.94166e+00  6.63265e-01
       H -1.19143e+00 -1.09706e+01  2.04532e-01
       H  1.79197e+00 -1.09474e+01  3.36068e-01
       O  4.52471e+00 -2.58218e+00  6.62891e-01
       H  3.05743e+00 -3.61117e+00  2.04240e-01
       H  6.04080e+00 -3.58806e+00  3.36089e-01
       O  4.54037e+00 -1.25543e+01  1.30539e+01
       H  4.54173e+00 -1.43516e+01  1.36070e+01
       H  4.35050e+00 -1.25670e+01  1.12364e+01
       O  2.91297e-01 -5.19502e+00  1.30541e+01
       H  2.92732e-01 -6.99225e+00  1.36074e+01
       H  1.01206e-01 -5.20786e+00  1.12367e+01
       O  3.97310e+00 -1.21368e+01  7.58177e+00
       H  2.45707e+00 -1.11309e+01  7.25464e+00
       H  5.44051e+00 -1.11080e+01  7.12302e+00
       O -2.76100e-01 -4.77767e+00  7.58136e+00
       H -1.79210e+00 -3.77177e+00  7.25428e+00
       H  1.19125e+00 -3.74871e+00  7.12290e+00
       O -2.91340e-01 -9.52458e+00  6.13593e+00
       H -1.01282e-01 -9.51181e+00  4.31852e+00
       H -2.92762e-01 -7.72734e+00  6.68916e+00
       O  3.95728e+00 -2.16475e+00  6.13602e+00
       H  4.14704e+00 -2.15175e+00  4.31853e+00
       H  3.95603e+00 -3.67615e-01  6.68942e+00
       O  2.75872e-01  4.77775e+00 -1.31735e+01
       H -1.19145e+00  3.74868e+00 -1.36320e+01
       H  1.79192e+00  3.77189e+00 -1.35005e+01
       O  4.52473e+00  1.21369e+01 -1.31737e+01
       H  3.05744e+00  1.11080e+01 -1.36325e+01
       H  6.04082e+00  1.11311e+01 -1.35004e+01
       O  4.54033e+00  2.16480e+00 -7.82502e-01
       H  4.54166e+00  3.67553e-01 -2.29384e-01
       H  4.35052e+00  2.15214e+00 -2.60000e+00
       O  2.91442e-01  9.52423e+00 -7.82681e-01
       H  2.92837e-01  7.72701e+00 -2.29452e-01
       H  1.01299e-01  9.51146e+00 -2.60013e+00
       O  3.97319e+00  2.58230e+00 -6.25496e+00
       H  2.45717e+00  3.58819e+00 -6.58198e+00
       H  5.44056e+00  3.61109e+00 -6.71379e+00
       O -2.76125e-01  9.94167e+00 -6.25515e+00
       H -1.79212e+00  1.09476e+01 -6.58222e+00
       H  1.19126e+00  1.09706e+01 -6.71377e+00
       O -2.91369e-01  5.19475e+00 -7.70046e+00
       H -1.01380e-01  5.20765e+00 -9.51793e+00
       H -2.92793e-01  6.99195e+00 -7.14718e+00
       O  3.95737e+00  1.25543e+01 -7.70076e+00
       H  4.14703e+00  1.25673e+01 -9.51824e+00
       H  3.95606e+00  1.43514e+01 -7.14726e+00
       O  2.75794e-01  4.77734e+00  6.62959e-01
       H -1.19152e+00  3.74832e+00  2.04499e-01
       H  1.79186e+00  3.77147e+00  3.35887e-01
       O  4.52464e+00  1.21373e+01  6.62988e-01
       H  3.05745e+00  1.11082e+01  2.04218e-01
       H  6.04076e+00  1.11314e+01  3.36450e-01
       O  4.54041e+00  2.16499e+00  1.30543e+01
       H  4.54178e+00  3.67749e-01  1.36074e+01
       H  4.35054e+00  2.15228e+00  1.12368e+01
       O  2.91308e-01  9.52457e+00  1.30538e+01
       H  2.92715e-01  7.72735e+00  1.36071e+01
       H  1.01225e-01  9.51181e+00  1.12363e+01
       O  3.97315e+00  2.58235e+00  7.58152e+00
       H  2.45713e+00  3.58829e+00  7.25455e+00
       H  5.44048e+00  3.61122e+00  7.12279e+00
       O -2.76008e-01  9.94202e+00  7.58171e+00
       H -1.79205e+00  1.09479e+01  7.25468e+00
       H  1.19134e+00  1.09710e+01  7.12317e+00
       O -2.91416e-01  5.19510e+00  6.13606e+00
       H -1.01371e-01  5.20795e+00  4.31863e+00
       H -2.92777e-01  6.99228e+00  6.68938e+00
       O  3.95729e+00  1.25546e+01  6.13612e+00
       H  4.14688e+00  1.25676e+01  4.31864e+00
       H  3.95603e+00  1.43518e+01  6.68952e+00
192
# CELL(abcABC):   16.99620    29.43815    27.67315    90.00000    90.00000    90.00000  Step:          10  Bead:      14 positions{atomic_unit}  cell{atomic_unit}
       O -8.23985e+00 -1.00425e+01 -1.31085e+01
       H  7.01771e+00 -1.07791e+01 -1.36896e+01
       H -6.74582e+00 -1.13461e+01 -1.38022e+01
       O -3.99647e+00 -2.57724e+00 -1.31423e+01
       H -5.37922e+00 -3.91503e+00 -1.34886e+01
       H -2.59487e+00 -3.53931e+00 -1.36133e+01
       O -3.94528e+00 -1.25321e+01 -7.96499e-01
       H -3.77800e+00 -1.41345e+01 -7.00545e-02
       H -4.37281e+00 -1.27823e+01 -2.63315e+00
       O -8.14607e+00 -5.12338e+00 -8.30197e-01
       H -8.29726e+00 -6.85361e+00 -4.47290e-01
       H -8.13787e+00 -4.98694e+00 -2.59767e+00
       O -4.48835e+00 -1.21951e+01 -6.23518e+00
       H -5.96778e+00 -1.10896e+01 -6.49940e+00
       H -2.71419e+00 -1.13160e+01 -6.81704e+00
       O  8.18159e+00 -4.79575e+00 -6.31817e+00
       H  6.64070e+00 -3.75439e+00 -6.85081e+00
       H -7.29306e+00 -3.80111e+00 -6.94256e+00
       O  8.17401e+00 -9.52172e+00 -7.60920e+00
       H  8.42811e+00 -9.32670e+00 -9.59125e+00
       H  8.14121e+00 -7.62250e+00 -6.86654e+00
       O -4.56360e+00 -2.08413e+00 -7.75000e+00
       H -4.19014e+00 -2.08248e+00 -9.74177e+00
       H -4.82713e+00 -4.30324e-01 -7.29036e+00
       O -8.21983e+00 -9.93335e+00  6.26750e-01
       H  7.38228e+00 -1.09118e+01  2.39753e-01
       H -6.74046e+00 -1.09678e+01  2.33121e-01
       O -3.95671e+00 -2.64323e+00  7.18086e-01
       H -5.44788e+00 -3.54110e+00  2.16130e-01
       H -2.57414e+00 -3.72262e+00  3.48345e-01
       O -3.96827e+00 -1.25201e+01  1.30712e+01
       H -3.74393e+00 -1.44143e+01  1.35276e+01
       H -3.93106e+00 -1.28000e+01  1.13547e+01
       O -8.15922e+00 -5.15151e+00  1.29870e+01
       H -8.19373e+00 -6.91118e+00  1.36225e+01
       H -8.30799e+00 -5.10097e+00  1.12588e+01
       O -4.51825e+00 -1.21138e+01  7.59303e+00
       H -6.17236e+00 -1.11005e+01  7.29095e+00
       H -3.18619e+00 -1.09302e+01  7.06219e+00
       O  8.21510e+00 -4.71670e+00  7.62919e+00
       H  6.72985e+00 -3.78145e+00  7.07767e+00
       H -7.09050e+00 -3.49256e+00  7.18778e+00
       O  8.19405e+00 -9.54477e+00  6.19195e+00
       H  8.43592e+00 -9.32656e+00  4.31590e+00
       H  8.09306e+00 -7.71557e+00  6.66818e+00
       O -4.50902e+00 -2.10518e+00  6.12311e+00
       H -4.15657e+00 -2.36525e+00  4.29503e+00
       H -4.51202e+00 -3.40519e-01  6.73745e+00
       O -8.18980e+00  4.73032e+00 -1.31966e+01
       H  7.38705e+00  3.65550e+00 -1.32585e+01
       H -6.74912e+00  3.64863e+00 -1.35961e+01
       O -3.97281e+00  1.21005e+01 -1.32230e+01
       H -5.49946e+00  1.11599e+01 -1.36407e+01
       H -2.37043e+00  1.11479e+01 -1.33916e+01
       O -3.91532e+00  2.10848e+00 -8.42319e-01
       H -4.03043e+00  5.19250e-01 -5.66335e-02
       H -4.09746e+00  2.07642e+00 -2.61649e+00
       O -8.23132e+00  9.53394e+00 -7.95355e-01
       H -8.01888e+00  7.67354e+00 -2.06392e-01
       H -8.44273e+00  9.53331e+00 -2.62665e+00
       O -4.51047e+00  2.57618e+00 -6.23609e+00
       H -6.37086e+00  3.47301e+00 -6.36547e+00
       H -3.39623e+00  3.62852e+00 -6.69411e+00
       O  8.20529e+00  9.89766e+00 -6.24635e+00
       H  6.71154e+00  1.06712e+01 -6.73548e+00
       H -7.22247e+00  1.08494e+01 -6.49408e+00
       O  8.12453e+00  5.23168e+00 -7.69272e+00
       H  8.38858e+00  5.05470e+00 -9.55383e+00
       H  8.08363e+00  7.16767e+00 -7.29074e+00
       O -4.52877e+00  1.24956e+01 -7.73359e+00
       H -4.73586e+00  1.25196e+01 -9.65526e+00
       H -4.62801e+00  1.45129e+01 -7.27103e+00
       O -8.16337e+00  4.79016e+00  6.08575e-01
       H  7.36317e+00  3.80928e+00  4.47125e-01
       H -6.66145e+00  3.63121e+00  3.36595e-01
       O -3.96938e+00  1.21183e+01  6.15602e-01
       H -5.52023e+00  1.10101e+01  3.19488e-01
       H -2.43539e+00  1.11223e+01  5.79777e-01
       O -3.91842e+00  2.19168e+00  1.30907e+01
       H -4.00255e+00  4.13779e-01  1.34128e+01
       H -4.24256e+00  2.19743e+00  1.11521e+01
       O -8.19067e+00  9.56197e+00  1.30578e+01
       H -8.34959e+00  7.58808e+00  1.34106e+01
       H -8.51405e+00  9.25478e+00  1.12638e+01
       O -4.50861e+00  2.63523e+00  7.58521e+00
       H -6.00349e+00  3.51095e+00  7.11192e+00
       H -2.90803e+00  3.69136e+00  6.99239e+00
       O  8.26618e+00  9.95558e+00  7.60384e+00
       H  6.72652e+00  1.07496e+01  7.03860e+00
       H -7.23726e+00  1.09013e+01  7.34818e+00
       O  8.18085e+00  5.20566e+00  6.17438e+00
       H  8.19279e+00  5.51451e+00  4.37046e+00
       H  8.14241e+00  7.30895e+00  6.88545e+00
       O -4.54638e+00  1.25056e+01  6.15344e+00
       H -4.35289e+00  1.24935e+01  4.49976e+00
       H -4.50730e+00  1.45946e+01  6.96539e+00
       O  2.90219e-01 -9.93851e+00 -1.31771e+01
       H -1.28513e+00 -1.09035e+01 -1.37412e+01
       H  1.52233e+00 -1.10148e+01 -1.34374e+01
       O  4.58854e+00 -2.61057e+00 -1.30993e+01
       H  3.05078e+00 -3.39043e+00 -1.35333e+01
       H  5.97799e+00 -3.46865e+00 -1.33690e+01
       O  4.60565e+00 -1.26369e+01 -7.80702e-01
       H  4.46941e+00 -1.44080e+01 -3.75454e-01
       H  4.34733e+00 -1.25418e+01 -2.54649e+00
       O  2.59981e-01 -5.13328e+00 -7.30238e-01
       H  3.00573e-01 -7.04483e+00 -2.85015e-01
       H  3.69016e-02 -5.08346e+00 -2.49884e+00
       O  3.99117e+00 -1.21609e+01 -6.22959e+00
       H  2.41838e+00 -1.11149e+01 -6.67410e+00
       H  5.80279e+00 -1.09212e+01 -6.69944e+00
       O -2.78696e-01 -4.79970e+00 -6.30819e+00
       H -2.01197e+00 -3.77562e+00 -6.58131e+00
       H  1.13902e+00 -3.99641e+00 -6.93433e+00
       O -2.36971e-01 -9.59556e+00 -7.69108e+00
       H -1.98535e-01 -9.77599e+00 -9.66415e+00
       H -2.85721e-01 -7.71528e+00 -7.46401e+00
       O  3.96568e+00 -2.27683e+00 -7.65790e+00
       H  4.05179e+00 -1.92548e+00 -9.35225e+00
       H  3.92407e+00 -5.10236e-01 -7.06173e+00
       O  2.83364e-01 -1.00038e+01  6.80955e-01
       H -1.14351e+00 -1.10604e+01  1.75549e-01
       H  1.91964e+00 -1.10947e+01  5.03305e-01
       O  4.54876e+00 -2.58390e+00  6.44877e-01
       H  3.09685e+00 -3.62640e+00  4.15400e-01
       H  6.21583e+00 -3.64832e+00  3.30696e-01
       O  4.58680e+00 -1.24923e+01  1.30661e+01
       H  4.69017e+00 -1.44265e+01  1.36397e+01
       H  3.99629e+00 -1.26939e+01  1.12468e+01
       O  2.91843e-01 -5.21299e+00  1.29953e+01
       H  4.08122e-01 -7.08221e+00  1.34139e+01
       H  6.55666e-02 -5.28696e+00  1.12895e+01
       O  3.92520e+00 -1.21549e+01  7.56566e+00
       H  2.52405e+00 -1.12496e+01  7.40211e+00
       H  5.41449e+00 -1.10876e+01  6.91379e+00
       O -2.17025e-01 -4.72433e+00  7.58711e+00
       H -1.90758e+00 -3.79310e+00  7.27347e+00
       H  1.06432e+00 -3.63519e+00  7.34289e+00
       O -2.81968e-01 -9.57602e+00  6.13920e+00
       H -6.00744e-02 -9.35340e+00  4.15541e+00
       H -3.76029e-01 -7.79714e+00  6.92356e+00
       O  4.00661e+00 -2.26806e+00  6.09540e+00
       H  4.24092e+00 -2.22206e+00  4.34049e+00
       H  4.14137e+00 -3.56652e-01  6.51828e+00
       O  2.42224e-01  4.76694e+00 -1.30859e+01
       H -1.18727e+00  3.95788e+00 -1.38684e+01
       H  1.63753e+00  3.68486e+00 -1.37622e+01
       O  4.56188e+00  1.21810e+01 -1.31582e+01
       H  3.31624e+00  1.09389e+01 -1.34604e+01
       H  6.18682e+00  1.13347e+01 -1.35558e+01
       O  4.48883e+00  2.20999e+00 -7.79406e-01
       H  4.51608e+00  5.79309e-01 -2.63501e-01
       H  4.14550e+00  2.14918e+00 -2.48790e+00
       O  2.39022e-01  9.53225e+00 -7.86881e-01
       H  2.54290e-01  7.78319e+00 -7.67605e-02
       H  2.59901e-01  9.43571e+00 -2.75763e+00
       O  3.96420e+00  2.58716e+00 -6.23852e+00
       H  2.61984e+00  3.61387e+00 -6.28412e+00
       H  5.50648e+00  3.47218e+00 -6.75906e+00
       O -2.89836e-01  1.00202e+01 -6.26351e+00
       H -1.80763e+00  1.10918e+01 -6.69072e+00
       H  1.41284e+00  1.09320e+01 -6.69592e+00
       O -2.85133e-01  5.19531e+00 -7.69965e+00
       H  1.73518e-02  5.35447e+00 -9.22912e+00
       H -1.04604e-02  7.11761e+00 -7.24747e+00
       O  3.92494e+00  1.25559e+01 -7.61926e+00
       H  4.03847e+00  1.23937e+01 -9.51991e+00
       H  4.11289e+00  1.42707e+01 -7.30116e+00
       O  2.60660e-01  4.74356e+00  6.97405e-01
       H -1.08095e+00  3.66579e+00  1.36361e-02
       H  1.79178e+00  3.49635e+00  6.39399e-01
       O  4.48868e+00  1.21607e+01  6.39830e-01
       H  3.04482e+00  1.09933e+01  8.57726e-02
       H  6.08496e+00  1.12252e+01  4.76330e-01
       O  4.49314e+00  2.17645e+00  1.30431e+01
       H  4.61972e+00  7.27854e-02  1.37263e+01
       H  4.51726e+00  1.99555e+00  1.11232e+01
       O  2.81192e-01  9.53351e+00  1.30491e+01
       H  4.07486e-01  7.86867e+00  1.39504e+01
       H  2.33914e-01  9.29865e+00  1.11783e+01
       O  4.00976e+00  2.55739e+00  7.60928e+00
       H  2.31278e+00  3.45657e+00  7.04589e+00
       H  5.27118e+00  3.71513e+00  7.21481e+00
       O -3.40557e-01  9.93418e+00  7.56980e+00
       H -1.96100e+00  1.06379e+01  7.29931e+00
       H  1.31635e+00  1.08828e+01  6.89556e+00
       O -3.24148e-01  5.16009e+00  6.14485e+00
       H -2.73269e-01  5.27640e+00  4.53137e+00
       H -4.86057e-01  6.98754e+00  6.59771e+00
       O  3.94969e+00  1.24945e+01  6.13731e+00
       H  3.91167e+00  1.28769e+01  4.45742e+00
       H  4.12427e+00  1.45354e+01  7.00593e+00
192
# CELL(abcABC):   16.99620    29.43815    27.67315    90.00000    90.00000    90.00000  Step:          20  Bead:      14 positions{atomic_unit}  cell{atomic_unit}
       O -8.21392e+00 -1.00195e+01 -1.31121e+01
       H  7.03890e+00 -1.07533e+01 -1.36780e+01
       H -6.97829e+00 -1.11409e+01 -1.36275e+01
       O -4.00280e+00 -2.61265e+00 -1.31166e+01
       H -5.22236e+00 -3.84490e+00 -1.34280e+01
       H -2.41540e+00 -3.40322e+00 -1.36700e+01
       O -3.93228e+00 -1.25335e+01 -7.77974e-01
       H -4.23564e+00 -1.43066e+01 -2.17418e-01
       H -4.37494e+00 -1.25174e+01 -2.52354e+00
       O -8.17221e+00 -5.22622e+00 -8.03667e-01
       H -8.45590e+00 -6.87608e+00 -1.78962e-01
       H -8.31618e+00 -4.76290e+00 -2.55402e+00
       O -4.47982e+00 -1.21499e+01 -6.21676e+00
       H -6.10003e+00 -1.12029e+01 -6.47327e+00
       H -3.02556e+00 -1.15021e+01 -6.77951e+00
       O  8.27644e+00 -4.75471e+00 -6.35490e+00
       H  6.59124e+00 -3.77979e+00 -6.65857e+00
       H -7.16751e+00 -3.76878e+00 -6.93695e+00
       O  8.17445e+00 -9.48609e+00 -7.58306e+00
       H  8.56404e+00 -9.60450e+00 -9.26769e+00
       H  8.16591e+00 -7.25709e+00 -6.89884e+00
       O -4.55846e+00 -2.11078e+00 -7.71379e+00
       H -4.10969e+00 -1.94485e+00 -9.52589e+00
       H -4.66599e+00 -3.04397e-01 -6.97526e+00
       O -8.21705e+00 -9.85031e+00  6.41147e-01
       H  7.34589e+00 -1.09441e+01  1.29402e-02
       H -6.66245e+00 -1.07511e+01  1.14285e-01
       O -3.89635e+00 -2.72025e+00  7.27901e-01
       H -5.55716e+00 -3.75766e+00  6.27461e-01
       H -2.52301e+00 -3.89277e+00  4.84272e-01
       O -4.03392e+00 -1.24610e+01  1.31079e+01
       H -3.90365e+00 -1.44790e+01  1.35401e+01
       H -4.08618e+00 -1.27826e+01  1.11248e+01
       O -8.14694e+00 -5.05953e+00  1.29858e+01
       H -7.97021e+00 -7.09928e+00  1.37976e+01
       H -8.08460e+00 -5.09471e+00  1.12215e+01
       O -4.53986e+00 -1.21684e+01  7.62733e+00
       H -5.93135e+00 -1.11961e+01  7.32060e+00
       H -3.38864e+00 -1.11683e+01  7.00119e+00
       O  8.34052e+00 -4.68395e+00  7.53060e+00
       H  6.73602e+00 -3.80153e+00  7.15223e+00
       H -7.35895e+00 -3.90687e+00  7.11887e+00
       O  8.17899e+00 -9.52852e+00  6.21079e+00
       H  8.17795e+00 -9.17542e+00  4.53881e+00
       H  8.05677e+00 -7.74225e+00  7.04685e+00
       O -4.53718e+00 -2.05738e+00  6.06221e+00
       H -4.24418e+00 -2.20190e+00  4.39396e+00
       H -4.21470e+00 -4.17179e-01  6.58310e+00
       O -8.10168e+00  4.70305e+00 -1.32485e+01
       H  7.07839e+00  3.54810e+00 -1.32378e+01
       H -6.67500e+00  3.50497e+00 -1.35238e+01
       O -4.01509e+00  1.21459e+01 -1.31775e+01
       H -5.68969e+00  1.14010e+01 -1.40499e+01
       H -2.28356e+00  1.15053e+01 -1.31721e+01
       O -3.94173e+00  2.12943e+00 -9.05679e-01
       H -4.21020e+00  4.26471e-01 -1.96560e-01
       H -4.31077e+00  2.09145e+00 -2.97041e+00
       O -8.19885e+00  9.51296e+00 -8.29046e-01
       H -7.80000e+00  7.69495e+00 -4.15245e-01
       H -8.40713e+00  9.54568e+00 -2.67351e+00
       O -4.51572e+00  2.59968e+00 -6.28852e+00
       H -6.04631e+00  3.47107e+00 -6.29881e+00
       H -3.17527e+00  3.70175e+00 -6.71814e+00
       O  8.10665e+00  9.95011e+00 -6.19150e+00
       H  6.84947e+00  1.08603e+01 -6.46570e+00
       H -7.28116e+00  1.08761e+01 -6.44271e+00
       O  8.10841e+00  5.26072e+00 -7.70755e+00
       H  8.29539e+00  4.99579e+00 -9.46739e+00
       H  8.05247e+00  6.89876e+00 -7.40462e+00
       O -4.54960e+00  1.25073e+01 -7.74552e+00
       H -4.45926e+00  1.25188e+01 -9.54707e+00
       H -4.55588e+00  1.46597e+01 -7.33708e+00
       O -8.18525e+00  4.80300e+00  5.94785e-01
       H  7.57252e+00  3.81682e+00  3.94198e-01
       H -6.42751e+00  3.66423e+00  8.18392e-01
       O -3.92310e+00  1.21184e+01  5.82024e-01
       H -5.52583e+00  1.10970e+01  3.45364e-01
       H -2.43211e+00  1.11890e+01  4.78251e-01
       O -3.94436e+00  2.21481e+00  1.30691e+01
       H -4.18205e+00  4.55186e-01  1.30132e+01
       H -4.38351e+00  2.21841e+00  1.11526e+01
       O -8.15420e+00  9.49856e+00  1.30253e+01
       H -8.39629e+00  7.61350e+00  1.35370e+01
       H -8.74830e+00  9.36441e+00  1.13699e+01
       O -4.42634e+00  2.58527e+00  7.59169e+00
       H -5.80918e+00  3.33410e+00  7.04455e+00
       H -2.89929e+00  3.71215e+00  7.04597e+00
       O  8.28848e+00  9.91676e+00  7.58524e+00
       H  6.80862e+00  1.10205e+01  7.01690e+00
       H -7.10432e+00  1.08801e+01  7.34499e+00
       O  8.17215e+00  5.17215e+00  6.17707e+00
       H  8.37314e+00  5.65977e+00  4.28229e+00
       H  8.25415e+00  7.20744e+00  6.71633e+00
       O -4.59438e+00  1.25371e+01  6.17420e+00
       H -4.44034e+00  1.24534e+01  4.40431e+00
       H -4.63203e+00  1.46997e+01  7.20752e+00
       O  3.02594e-01 -9.89008e+00 -1.32309e+01
       H -1.16360e+00 -1.08068e+01 -1.39859e+01
       H  1.70005e+00 -1.12194e+01 -1.33788e+01
       O  4.56743e+00 -2.58877e+00 -1.31190e+01
       H  3.08513e+00 -3.48216e+00 -1.32770e+01
       H  6.14976e+00 -3.43791e+00 -1.37805e+01
       O  4.61731e+00 -1.26372e+01 -7.37092e-01
       H  4.51042e+00 -1.45135e+01 -3.39250e-01
       H  4.29350e+00 -1.25067e+01 -2.61086e+00
       O  2.64968e-01 -5.16866e+00 -6.98344e-01
       H  5.62739e-01 -6.92839e+00 -5.03761e-01
       H -8.89826e-02 -4.83770e+00 -2.49447e+00
       O  4.00472e+00 -1.21353e+01 -6.19881e+00
       H  2.67015e+00 -1.13592e+01 -6.83396e+00
       H  5.78312e+00 -1.11173e+01 -6.85467e+00
       O -2.90766e-01 -4.84354e+00 -6.30929e+00
       H -1.74784e+00 -3.80738e+00 -6.92771e+00
       H  1.39358e+00 -4.01998e+00 -7.07609e+00
       O -1.85874e-01 -9.71884e+00 -7.64870e+00
       H -1.73254e-01 -1.00505e+01 -9.37882e+00
       H -4.05383e-01 -7.63372e+00 -7.29155e+00
       O  3.94451e+00 -2.28540e+00 -7.70862e+00
       H  4.05424e+00 -2.02886e+00 -9.52187e+00
       H  3.92621e+00 -4.45978e-01 -6.89519e+00
       O  2.93016e-01 -9.96851e+00  6.73245e-01
       H -1.16400e+00 -1.12886e+01  2.46145e-01
       H  1.87296e+00 -1.10758e+01  1.35363e-01
       O  4.52339e+00 -2.59138e+00  6.75372e-01
       H  2.89951e+00 -3.81883e+00  6.25795e-01
       H  6.07141e+00 -3.62716e+00  3.75566e-01
       O  4.61549e+00 -1.24385e+01  1.31156e+01
       H  4.64840e+00 -1.45749e+01  1.36206e+01
       H  3.92859e+00 -1.27371e+01  1.15935e+01
       O  2.08428e-01 -5.17834e+00  1.30094e+01
       H  7.55311e-01 -6.85670e+00  1.35328e+01
       H  1.85815e-01 -5.20537e+00  1.11916e+01
       O  3.90510e+00 -1.21323e+01  7.46976e+00
       H  2.39881e+00 -1.11817e+01  7.56152e+00
       H  5.71327e+00 -1.10898e+01  7.00591e+00
       O -1.40147e-01 -4.78945e+00  7.58574e+00
       H -1.57339e+00 -3.77480e+00  7.44232e+00
       H  1.29456e+00 -3.56216e+00  7.44447e+00
       O -2.16641e-01 -9.58575e+00  6.13394e+00
       H -5.31509e-01 -9.08036e+00  4.35624e+00
       H -6.55133e-01 -7.69866e+00  6.87593e+00
       O  4.02106e+00 -2.31835e+00  6.04831e+00
       H  4.47653e+00 -1.92413e+00  4.22046e+00
       H  4.03092e+00 -3.51422e-01  6.84710e+00
       O  3.05546e-01  4.77140e+00 -1.31027e+01
       H -1.05224e+00  4.07752e+00 -1.38475e+01
       H  1.54005e+00  3.61199e+00 -1.39966e+01
       O  4.59548e+00  1.22524e+01 -1.31487e+01
       H  3.46264e+00  1.09264e+01 -1.35800e+01
       H  6.10931e+00  1.11859e+01 -1.38551e+01
       O  4.46238e+00  2.25066e+00 -7.23779e-01
       H  4.63123e+00  5.38875e-01  1.60038e-03
       H  4.18363e+00  2.18122e+00 -2.57700e+00
       O  2.00829e-01  9.56193e+00 -7.40107e-01
       H  3.72184e-01  7.81452e+00 -5.46925e-02
       H  1.94741e-01  9.47325e+00 -2.56791e+00
       O  4.06036e+00  2.57033e+00 -6.24291e+00
       H  2.46600e+00  3.46529e+00 -6.35374e+00
       H  5.33809e+00  3.44443e+00 -6.55965e+00
       O -1.82511e-01  9.97599e+00 -6.31089e+00
       H -1.55572e+00  1.10160e+01 -6.41705e+00
       H  1.52539e+00  1.07413e+01 -6.84781e+00
       O -3.39603e-01  5.19344e+00 -7.71029e+00
       H  3.49465e-01  5.12954e+00 -9.43698e+00
       H  8.72203e-02  7.22623e+00 -7.21586e+00
       O  3.88806e+00  1.24925e+01 -7.73054e+00
       H  4.25459e+00  1.24068e+01 -9.45436e+00
       H  3.94155e+00  1.44593e+01 -7.08072e+00
       O  2.80327e-01  4.69597e+00  7.01486e-01
       H -1.02039e+00  3.48568e+00 -7.23266e-03
       H  1.68792e+00  3.45478e+00  1.85092e-01
       O  4.54332e+00  1.21168e+01  6.08527e-01
       H  3.34763e+00  1.08801e+01  1.30925e-01
       H  6.29126e+00  1.11485e+01  3.40477e-01
       O  4.50461e+00  2.20866e+00  1.30295e+01
       H  4.63713e+00  3.46973e-01  1.37981e+01
       H  4.28792e+00  1.99948e+00  1.13960e+01
       O  2.57386e-01  9.56612e+00  1.30986e+01
       H  6.06187e-01  7.94916e+00  1.40301e+01
       H -4.07356e-02  9.03370e+00  1.11120e+01
       O  4.00859e+00  2.54713e+00  7.59992e+00
       H  2.34095e+00  3.04672e+00  7.16759e+00
       H  5.48904e+00  3.66193e+00  7.27485e+00
       O -3.83266e-01  9.89755e+00  7.60304e+00
       H -1.90769e+00  1.08697e+01  7.38753e+00
       H  1.13140e+00  1.08096e+01  7.14642e+00
       O -4.07871e-01  5.17617e+00  6.15146e+00
       H -4.67378e-01  5.09529e+00  4.29223e+00
       H -3.54448e-01  7.04729e+00  6.74008e+00
       O  4.04270e+00  1.25249e+01  6.10975e+00
       H  4.24879e+00  1.29898e+01  4.06819e+00
       H  4.06351e+00  1.45193e+01  6.76136e+00
192
# CELL(abcABC):   16.99620    29.43815    27.67315    90.00000    90.00000    90.00000  Step:          30  Bead:      14 positions{atomic_unit}  cell{atomic_unit}
       O -8.19401e+00 -9.97562e+00 -1.30548e+01
       H  6.91674e+00 -1.05738e+01 -1.36636e+01
       H -6.91808e+00 -1.11469e+01 -1.39508e+01
       O -4.03105e+00 -2.52258e+00 -1.31839e+01
       H -5.25266e+00 -3.56655e+00 -1.35562e+01
       H -2.44340e+00 -3.44632e+00 -1.36230e+01
       O -3.98187e+00 -1.24961e+01 -8.23507e-01
       H -4.06354e+00 -1.42777e+01 -3.66229e-01
       H -4.37916e+00 -1.26660e+01 -2.65266e+00
       O -8.19217e+00 -5.14890e+00 -7.63824e-01
       H -8.30576e+00 -6.98109e+00 -5.07855e-02
       H -8.77724e+00 -4.83763e+00 -2.72825e+00
       O -4.42269e+00 -1.22154e+01 -6.22447e+00
       H -5.77722e+00 -1.11477e+01 -6.86601e+00
       H -3.02272e+00 -1.15212e+01 -6.74152e+00
       O  8.28340e+00 -4.82709e+00 -6.41396e+00
       H  6.70043e+00 -3.79452e+00 -6.87421e+00
       H -7.14163e+00 -3.88932e+00 -7.23065e+00
       O  8.14218e+00 -9.49715e+00 -7.54798e+00
       H  8.65201e+00 -9.71252e+00 -9.25854e+00
       H  8.16213e+00 -7.32078e+00 -6.92453e+00
       O -4.54490e+00 -2.13140e+00 -7.79797e+00
       H -4.09218e+00 -1.95938e+00 -9.41812e+00
       H -4.87737e+00 -1.33211e-01 -7.25236e+00
       O -8.25066e+00 -9.84925e+00  6.91986e-01
       H  7.35374e+00 -1.08037e+01  2.81983e-01
       H -6.78366e+00 -1.06624e+01  1.68695e-01
       O -3.89040e+00 -2.65318e+00  7.38463e-01
       H -5.65296e+00 -3.47203e+00  7.13010e-01
       H -2.68305e+00 -4.04149e+00  6.92817e-01
       O -3.93873e+00 -1.24852e+01  1.30564e+01
       H -3.90553e+00 -1.45841e+01  1.36524e+01
       H -4.07812e+00 -1.25769e+01  1.12597e+01
       O -8.16165e+00 -5.10969e+00  1.30197e+01
       H -7.61543e+00 -7.03844e+00  1.36180e+01