192
# CELL(abcABC):   16.99620    29.43815    27.67315    90.00000    90.00000    90.00000  Step:           0  Bead:       2 velocities{atomic_unit}  cell{atomic_unit}
       O -9.59742e-05 -1.80096e-03 -1.09320e-03
       H  3.48702e-03 -5.32626e-03  1.81433e-03
       H  1.50164e-03 -2.89181e-03 -4.39124e-03
       O  6.26792e-04  1.00697e-03  8.46490e-04
       H -5.56581e-03 -1.00056e-03 -4.37386e-03
       H  1.23592e-04  3.20054e-06 -6.46154e-03
       O  8.09222e-04 -1.29470e-03 -9.13015e-04
       H  7.86254e-04  2.93305e-03 -2.01080e-03
       H -3.40275e-03  1.48437e-03 -1.66055e-04
       O  5.32731e-05  9.92824e-04 -2.31510e-04
       H -2.07613e-03 -5.77196e-03 -8.21367e-03
       H  2.68735e-03  7.29590e-03  3.59710e-03
       O -3.75391e-04  4.19720e-04 -9.12514e-04
       H -2.27525e-03 -1.22716e-03  4.63454e-04
       H  4.25959e-03  1.14803e-03  6.45728e-05
       O -6.81529e-04 -7.97345e-04 -2.36392e-03
       H -2.67675e-03  7.15907e-03 -4.87809e-04
       H -4.59807e-03  4.68781e-03 -2.49267e-03
       O -2.88799e-03  5.46622e-04 -8.34331e-04
       H -3.07898e-03 -5.22584e-03 -3.14358e-03
       H  2.64654e-03 -1.94020e-03 -4.62222e-03
       O  1.24234e-03 -6.91174e-05 -6.22694e-04
       H  1.36890e-03  7.17058e-05  1.60163e-03
       H -3.02435e-03  1.31495e-03  4.60116e-03
       O -1.36991e-03  2.94725e-04  1.05171e-03
       H  9.81532e-04  1.93446e-03  5.36776e-03
       H -5.14720e-03  3.94434e-03 -2.66399e-03
       O  6.15531e-04  6.51954e-04  9.58688e-04
       H  1.92708e-03 -2.08062e-03 -1.67940e-03
       H  3.54897e-03 -1.54160e-03 -8.15349e-04
       O -5.26522e-04 -1.77936e-04  1.06544e-03
       H -3.36601e-03 -8.46502e-04  2.04335e-04
       H  1.13234e-03 -3.40968e-03  3.74646e-03
       O  6.58217e-04  7.53086e-04 -3.77589e-05
       H -3.73995e-03  2.71604e-03 -6.15457e-03
       H  2.96765e-03 -3.52005e-03  6.70718e-04
       O  1.02608e-03 -5.51370e-04  1.64749e-04
       H  1.78516e-03  3.71812e-03 -2.27794e-03
       H  6.55530e-03  1.45760e-03  5.73560e-03
       O -8.88828e-04  1.21540e-04 -9.44245e-05
       H  1.66187e-03  2.07109e-04 -3.19081e-03
       H -6.27014e-03 -3.29230e-03  3.33338e-03
       O -1.70264e-04  1.22995e-03  3.93388e-04
       H  3.58101e-04 -9.55239e-04 -1.12684e-03
       H  1.22103e-03  8.56859e-04  4.88205e-04
       O -1.10174e-03 -4.76812e-04 -1.18597e-04
       H  1.96515e-03 -1.15471e-03  5.33116e-03
       H  4.70872e-04  7.87713e-03 -2.02620e-03
       O -4.09698e-04 -4.62130e-04  6.68969e-04
       H -1.01676e-03  7.64712e-04  2.12159e-03
       H  5.55767e-03  5.55019e-04  2.58346e-03
       O -4.68679e-04  4.69297e-04  2.01341e-04
       H  9.14556e-04  1.56832e-03 -3.96771e-03
       H -3.39563e-03 -2.93390e-03 -6.58498e-03
       O -4.30178e-04 -9.09923e-04  5.47220e-04
       H -6.30627e-03  2.65359e-03 -4.86673e-04
       H -1.18380e-03  6.61588e-04 -6.27715e-05
       O -2.27766e-04 -4.44391e-04 -6.06948e-04
       H  5.75214e-03 -9.24207e-04  1.66436e-03
       H -8.15313e-03 -2.42177e-03  5.61669e-06
       O  1.46039e-04  1.64549e-03  8.33081e-04
       H  3.83742e-03  9.18815e-04 -8.14193e-04
       H -4.01304e-04 -6.85957e-04 -7.30890e-04
       O -8.68929e-04  2.31369e-04  1.70855e-03
       H -1.43264e-03 -3.61165e-03 -2.39081e-03
       H  1.51188e-03 -1.48837e-04  5.38302e-04
       O  1.60621e-04  9.65338e-04  8.85077e-05
       H  5.80236e-03  8.47183e-03  4.46962e-03
       H  7.85572e-04  1.42346e-03 -9.58412e-03
       O  1.29484e-03 -5.77993e-04  6.24701e-04
       H -5.15071e-03  3.88952e-03  1.65862e-03
       H -1.37065e-04 -1.66461e-04  4.70854e-04
       O -1.72430e-03  8.95518e-04  8.49668e-04
       H  1.42289e-03 -5.94278e-03  3.21651e-03
       H -3.57234e-03  8.93864e-04 -5.80459e-03
       O  5.61116e-04 -7.56487e-04  8.91843e-05
       H  4.53661e-04 -1.35764e-03  7.76315e-03
       H -3.97536e-03  4.87012e-03 -1.73321e-03
       O -1.53159e-04 -6.63711e-05 -9.00106e-04
       H -3.67833e-03  1.60351e-03  3.29934e-04
       H -5.76549e-03 -5.41481e-03 -3.00063e-03
       O -1.11929e-03  1.18593e-03 -1.78542e-03
       H -4.15952e-03 -5.48857e-03  1.53938e-03
       H  7.52171e-04 -1.48205e-03 -4.98255e-03
       O -5.50865e-04  1.46369e-03 -1.42931e-03
       H -3.69926e-03 -2.67838e-03  1.56673e-03
       H -2.29225e-03 -1.00711e-03  7.34140e-04
       O -2.17196e-04 -5.32992e-04 -1.13855e-03
       H  6.34205e-04  4.65664e-03  3.14542e-03
       H  1.22176e-03  4.93470e-04  2.62022e-03
       O -3.43838e-04  1.32503e-03 -3.84677e-04
       H  6.81601e-03  5.93924e-03  4.17360e-04
       H  5.19365e-03  3.20254e-03  7.33866e-03
       O -6.86125e-04  1.68607e-04  5.13005e-04
       H -1.87534e-03 -1.18660e-03 -9.23732e-03
       H  4.42884e-03  3.29883e-03  3.90987e-03
       O  2.99965e-04  1.26771e-03  9.82160e-05
       H  2.63450e-03  4.43255e-05 -1.47642e-03
       H  7.87531e-04  4.34702e-04 -2.12741e-04
       O  9.57465e-04  2.50099e-04  2.81875e-04
       H  3.78258e-03 -1.88953e-03 -1.65468e-03
       H  1.09860e-03  6.05673e-03  4.12706e-03
       O -6.13626e-04  9.07846e-04 -4.21686e-04
       H -7.37285e-04  8.33067e-04 -1.40668e-03
       H  3.95377e-03  1.04042e-03  2.71767e-03
       O -2.58945e-04  3.38836e-04  1.71221e-03
       H  1.24076e-03 -2.82926e-03  9.52914e-04
       H -2.28810e-03 -6.62988e-04  1.46596e-03
       O -3.81300e-04  1.01736e-03  7.13773e-04
       H  1.75632e-03  6.17818e-03  2.75572e-03
       H  1.15796e-03 -4.78775e-04  1.49369e-03
       O  3.04362e-04  3.67799e-04  8.21548e-04
       H  1.86727e-06 -7.20338e-03  3.46032e-03
       H  2.25299e-03  2.07295e-03  6.35993e-03
       O -1.71500e-04 -5.79970e-04 -6.75045e-04
       H  8.18166e-04 -4.79074e-03  6.69743e-04
       H -6.23243e-03  5.24278e-03 -2.06188e-03
       O -8.44920e-04  5.06651e-04  2.51710e-04
       H  5.72312e-03 -3.73158e-04  2.68856e-03
       H  3.66647e-03 -4.25365e-03  3.18820e-03
       O -2.17310e-04 -2.39414e-04  4.82086e-04
       H  5.17826e-03  1.56561e-03  2.98708e-03
       H -1.49802e-03 -5.14110e-03 -1.81906e-03
       O -8.68967e-04  1.26620e-03  6.92812e-04
       H  2.51609e-05 -3.73767e-03  2.68877e-03
       H  1.44802e-04  4.66776e-04  4.00667e-03
       O  1.50440e-04  3.77244e-04  2.14330e-03
       H -4.96943e-03 -3.22622e-04  1.13157e-04
       H -2.24436e-03  4.53455e-03 -1.77574e-03
       O  1.39303e-04  1.30122e-03  9.71265e-05
       H -3.11092e-03  4.59699e-04 -7.51826e-03
       H -2.11377e-03  1.75068e-03 -5.32847e-04
       O  7.39368e-04  1.41545e-03 -9.80425e-04
       H  2.11866e-03  1.01021e-03  7.37451e-03
       H -9.40184e-03  2.45943e-03  1.13423e-03
       O -2.40055e-04 -6.51306e-04 -3.63340e-04
       H -5.64472e-03 -7.35539e-04 -2.80561e-04
       H  4.92374e-04 -3.27001e-03  4.39639e-04
       O -6.52225e-04 -6.58254e-05  1.90292e-04
       H  8.88385e-03  8.25236e-04  4.03690e-03
       H -7.57701e-04 -2.06641e-03  2.18531e-03
       O  8.67206e-04  6.69942e-04  3.14441e-04
       H -2.90992e-03  1.95771e-03  4.20926e-03
       H  2.02920e-03  1.83535e-03  8.51661e-04
       O  3.68535e-04 -1.24191e-03 -1.06547e-04
       H  5.14198e-03 -1.70535e-03 -3.62879e-03
       H -5.16747e-03 -1.74880e-03  9.45465e-04
       O  8.69467e-04 -2.35603e-04  6.01250e-04
       H -2.25812e-03 -1.41256e-03 -1.07352e-02
       H  1.60621e-04  6.51458e-03  1.91977e-03
       O  1.15103e-04  8.08747e-04 -1.39409e-03
       H  3.27902e-03 -3.66531e-04  2.90775e-03
       H -2.62158e-03 -1.55966e-03  9.13632e-04
       O  1.17955e-03 -1.61712e-03  8.46797e-04
       H -1.94132e-03 -7.44755e-03  6.69359e-04
       H  2.52963e-03 -4.72515e-04  1.17443e-03
       O -5.47402e-04  1.39309e-04  1.11927e-04
       H -1.66358e-03 -5.52934e-03 -6.49349e-03
       H  2.24471e-03 -3.62999e-03  3.67573e-03
       O -2.52274e-04  2.65148e-04 -2.46583e-04
       H  1.25229e-03 -1.36488e-03 -6.45478e-05
       H -5.90498e-03 -5.19525e-03 -5.50012e-03
       O -2.22480e-04 -7.64117e-04  1.72344e-04
       H  4.05251e-03  1.04518e-02 -5.27492e-03
       H -2.26900e-03 -9.14990e-04 -9.34238e-03
       O  6.39279e-04  5.16178e-04 -7.05251e-04
       H  2.74015e-03 -3.21201e-03 -3.24424e-03
       H  1.30282e-03  7.39217e-03  7.91907e-04
       O  2.13779e-03  1.11197e-03 -2.96058e-04
       H  2.88956e-03  1.74178e-03 -1.31910e-03
       H -6.36312e-04  5.18394e-03  7.44503e-03
       O -1.30992e-04  4.27480e-04  9.92295e-04
       H -1.99677e-04 -2.50034e-03  4.67840e-03
       H  3.11972e-03  1.90573e-03  2.38154e-03
       O -7.38158e-04  2.61803e-04  8.80481e-04
       H  1.06460e-03  4.82535e-03  4.85126e-03
       H  1.72411e-04 -7.74852e-04 -4.19697e-05
       O  9.73750e-04 -7.85937e-04 -1.05160e-03
       H  3.53302e-03 -1.25297e-03  1.18203e-03
       H -5.24492e-03  5.21409e-03 -1.51319e-03
       O -3.07541e-04  7.59124e-04  6.32708e-04
       H -1.35210e-03 -2.94828e-03  5.02986e-03
       H  2.36081e-03 -1.77503e-03 -3.59698e-03
       O -9.34450e-04 -3.72376e-04  6.65384e-04
       H  2.93853e-03 -1.00601e-03  2.79059e-03
       H -4.61631e-03  2.82984e-04 -1.15345e-03
       O -1.10552e-03  6.35755e-05  3.63365e-04
       H -3.28471e-03  3.29009e-04  3.77202e-03
       H  3.04754e-03 -2.58085e-03 -2.62962e-03
       O  1.86513e-04  6.21663e-04  2.04544e-04
       H  5.30769e-04 -5.08099e-04  4.98130e-03
       H  4.93799e-03  5.58133e-03 -6.92669e-03
192
# CELL(abcABC):   16.99620    29.43815    27.67315    90.00000    90.00000    90.00000  Step:          10  Bead:       2 velocities{atomic_unit}  cell{atomic_unit}
       O  5.32712e-04 -8.49807e-04 -9.73769e-04
       H -3.42308e-03  6.23623e-03 -3.08418e-04
       H -3.59061e-04 -1.44323e-03 -3.88142e-03
       O  1.47745e-04  1.29684e-03 -2.62413e-04
       H -2.81427e-03 -2.54569e-03  2.03076e-03
       H  1.63286e-03 -1.02640e-03 -2.21230e-03
       O  1.02279e-03 -1.22667e-03  1.48500e-04
       H  1.08536e-03  3.65971e-03 -5.17561e-04
       H -2.19804e-03  2.24747e-03  3.00070e-03
       O  2.94322e-04  5.35977e-04  3.48511e-04
       H -4.18328e-03 -2.26167e-03 -1.54404e-03
       H -3.51681e-03 -2.54793e-03  3.01668e-04
       O  9.62845e-04 -3.53693e-05 -9.23633e-05
       H -2.98875e-03  3.72478e-04 -5.52857e-03
       H  1.31271e-03  5.20652e-03  2.99602e-03
       O -1.48972e-03  7.99960e-04  5.04745e-04
       H -1.38014e-03 -8.12667e-04 -5.55648e-03
       H -1.45070e-03  1.34565e-03  2.88644e-03
       O  1.54391e-03  1.39335e-03 -2.56594e-04
       H -3.90972e-03  2.03474e-03  8.71450e-04
       H -2.90826e-03  3.05651e-04  1.62645e-03
       O  4.00849e-04  3.16940e-04 -6.53156e-05
       H  3.84171e-03  2.48080e-03  4.23506e-03
       H -1.00162e-03 -2.15702e-03 -6.80438e-04
       O  3.41262e-04 -5.50040e-05 -1.63359e-04
       H  1.21978e-03 -3.01236e-04 -4.36371e-03
       H -6.94887e-03 -3.49111e-03 -8.60314e-04
       O -2.26618e-04  7.73291e-04 -2.43423e-04
       H  4.60990e-03 -4.47016e-03  2.63483e-03
       H -8.02437e-03 -1.74100e-03  3.03329e-03
       O  9.34965e-04 -1.48704e-04 -1.34698e-03
       H -7.09046e-03 -3.41536e-04 -1.82800e-03
       H  7.46357e-04 -5.28430e-03  3.66219e-03
       O  2.01590e-04 -7.87197e-04  2.98299e-04
       H  4.10776e-03 -2.49605e-03  3.49017e-03
       H  5.74861e-03 -4.60126e-03 -4.08313e-03
       O  9.41153e-04 -8.16422e-04 -1.02772e-03
       H  4.50343e-03 -1.29192e-03  2.60601e-03
       H -3.05028e-04 -1.70169e-03  1.03929e-03
       O  9.69063e-04  4.04922e-04 -1.15810e-03
       H -3.50334e-03 -2.28061e-04  8.57339e-03
       H  6.54583e-03  1.38056e-04 -1.67911e-03
       O  6.75850e-04  7.22638e-04 -2.34151e-04
       H  3.73046e-03 -1.59305e-03 -4.94429e-03
       H  5.02398e-04 -1.52904e-03 -6.10982e-03
       O  8.27236e-06  9.87257e-04  1.44118e-04
       H  3.50606e-03  9.03404e-04  3.39620e-03
       H  1.93187e-03 -2.41936e-03 -9.69903e-04
       O  4.17666e-04 -7.06386e-04  1.63838e-04
       H -4.50108e-03 -4.55520e-03 -4.67527e-03
       H  2.88779e-03  1.07915e-03  7.75336e-05
       O  9.00883e-04  1.01048e-03  1.38992e-03
       H -2.67396e-03 -8.31581e-04 -7.25381e-04
       H -3.16984e-03 -6.74826e-03 -1.64313e-04
       O -1.17102e-03 -2.32654e-04  4.66334e-04
       H -2.16350e-03 -1.27160e-04 -2.47354e-03
       H -3.51988e-03  1.89383e-05 -1.21733e-03
       O -2.07715e-04 -1.86951e-04  6.89275e-04
       H -4.14750e-04  6.94302e-04  4.04595e-03
       H  3.23170e-03 -2.16232e-03 -3.26533e-03
       O -5.95178e-04 -2.09366e-03 -5.29653e-05
       H -4.19737e-03  1.01375e-03  7.10580e-05
       H -2.55953e-03 -5.57025e-03 -7.20437e-03
       O -2.35634e-04 -1.01575e-03 -1.05391e-03
       H  2.61621e-03 -9.21972e-05  2.33601e-03
       H -5.17303e-03  4.97619e-03  3.27701e-03
       O  1.15194e-03 -2.92570e-04 -3.53114e-04
       H -5.92060e-03 -3.12779e-04  1.16374e-03
       H  1.56569e-03  4.67966e-03 -5.56545e-03
       O -1.79270e-03  5.96802e-04  5.45801e-05
       H -3.79682e-03 -4.46081e-03 -2.14263e-03
       H  5.60460e-03 -3.39418e-03 -3.87458e-03
       O -1.39026e-03  5.15983e-05 -9.11268e-04
       H -2.87892e-03 -8.31234e-03 -4.39587e-03
       H  6.55231e-04 -2.06054e-03 -4.07020e-03
       O -6.18565e-05  1.17795e-03 -1.59977e-04
       H -1.35656e-03  5.67513e-03  5.28367e-03
       H  3.26839e-03 -7.30516e-04  4.15296e-03
       O  7.07082e-04 -8.11510e-04  1.31693e-04
       H  5.91811e-03  4.99229e-04  4.17125e-03
       H  9.66835e-04  9.26671e-03 -1.05863e-03
       O  2.56807e-04  7.79766e-04  1.57075e-03
       H  1.81140e-03 -1.76669e-03 -2.61105e-04
       H  1.55184e-03  4.43366e-03 -8.41735e-04
       O  1.45102e-03 -3.56894e-06  4.12320e-04
       H  1.45961e-03  2.88223e-05  2.33419e-03
       H -3.61307e-05 -6.88400e-03  2.45424e-03
       O -2.17674e-04 -6.41285e-04  1.95359e-04
       H -2.46749e-03  2.56717e-03 -5.62885e-03
       H -4.56737e-03 -1.46873e-03  5.96765e-03
       O -6.07138e-04  1.06076e-04  1.68286e-04
       H  8.61520e-04 -3.14409e-03  1.27234e-03
       H  3.17779e-03  2.16489e-03  2.62107e-03
       O  4.57535e-04  4.81053e-04  6.92500e-04
       H  4.15388e-03  2.09344e-03 -8.52456e-04
       H  1.69125e-03 -4.19861e-03 -6.15000e-04
       O  1.16697e-03  1.62137e-03  4.58388e-04
       H  7.43317e-04  5.89445e-04  7.15915e-03
       H  5.89858e-03  8.49628e-04 -2.82108e-03
       O  5.56491e-04 -1.06930e-03  9.78283e-04
       H  2.09953e-03 -6.06574e-03  1.75766e-03
       H  9.47305e-04 -2.48417e-03 -2.42565e-03
       O  6.42149e-04 -9.63702e-04  1.70592e-03
       H  4.49128e-03  1.81262e-03  3.45364e-03
       H  2.28651e-03  5.43095e-03  1.27870e-04
       O -1.93958e-04  1.74778e-05  8.75201e-04
       H  4.97385e-05  4.41848e-04  2.76107e-03
       H  4.15502e-03 -4.48642e-03 -3.93855e-03
       O -6.30078e-04  1.01971e-03  5.49202e-04
       H -3.57569e-03  2.14164e-03  9.56883e-03
       H  2.39294e-03 -7.81746e-04 -3.56347e-03
       O  5.58850e-04  1.58681e-04  3.72904e-04
       H -6.92366e-04  1.25748e-03 -6.78937e-03
       H -4.69531e-04  7.15523e-03  1.11221e-04
       O  4.11145e-04  1.54819e-04  1.00337e-03
       H -1.54089e-03 -6.86535e-03 -7.38759e-04
       H -3.98541e-03  3.31228e-03 -3.10178e-04
       O  1.28220e-04  7.71250e-04 -4.15276e-04
       H  2.86826e-03 -9.46070e-03  5.67520e-03
       H  8.64738e-03  4.08115e-03  5.46710e-03
       O  8.68108e-04  1.61832e-04  1.05156e-03
       H  2.40108e-03  6.49769e-05  9.97170e-04
       H -2.66499e-03 -2.96692e-03 -1.05749e-03
       O -7.04855e-04 -6.05584e-04 -1.16019e-03
       H -2.46607e-04  4.88957e-04  8.48114e-03
       H -6.13850e-04  2.95414e-03  2.70650e-03
       O -6.51011e-04  8.50362e-04 -4.74600e-04
       H  5.45545e-04 -4.59943e-04  2.54653e-03
       H -1.73214e-04 -1.09678e-03  4.46964e-03
       O  5.10013e-04  1.31883e-03 -4.15822e-04
       H -5.20344e-03 -1.63482e-04  4.95096e-04
       H  6.75624e-03  5.67198e-04 -6.08043e-03
       O -8.42468e-04 -7.39465e-04  1.30183e-03
       H -5.47444e-04 -1.58631e-03 -9.40357e-04
       H -2.31802e-04  1.37413e-03  1.92537e-03
       O -5.71819e-04 -1.20978e-03 -1.01054e-03
       H -4.41256e-03  4.68908e-04 -3.69044e-03
       H  5.78079e-04  4.26762e-04 -1.83500e-03
       O  3.98521e-04 -3.62461e-04  3.38344e-05
       H -4.39209e-03  3.83334e-03  6.88756e-04
       H -2.11996e-03 -2.92598e-03  4.42225e-04
       O  7.93767e-04  4.55459e-04 -1.71052e-03
       H  2.14215e-03  6.65680e-03 -4.19872e-03
       H  9.16743e-05 -2.83168e-03  8.28467e-03
       O  8.62499e-04 -1.03913e-03  2.42514e-05
       H -1.95000e-03 -2.05227e-03  1.24107e-03
       H  1.85437e-03  6.94925e-06  1.97560e-03
       O -1.37923e-03 -6.00412e-04  1.16725e-03
       H  3.61319e-03 -6.33924e-03 -6.38574e-04
       H  9.07936e-05  2.17333e-03 -1.28170e-03
       O  4.73774e-04 -1.21801e-03 -2.53757e-04
       H -1.62374e-03  8.21868e-03  2.17355e-04
       H -1.44921e-03 -1.11758e-03  2.83077e-03
       O -1.08045e-03 -2.63611e-04 -6.37977e-04
       H  1.72859e-03 -6.15318e-03 -4.15756e-03
       H -9.63275e-03 -1.48070e-04  4.71643e-03
       O -1.14642e-03  1.13781e-03  1.98715e-03
       H  3.30095e-03  2.78928e-03  8.33875e-03
       H -7.93656e-04  4.39305e-04 -4.20140e-03
       O  6.25805e-04 -1.33106e-03 -1.87363e-03
       H -9.19939e-04 -3.83851e-03 -3.11871e-03
       H  1.92120e-03  2.20990e-03 -5.68338e-03
       O  1.23442e-03  1.43000e-03  3.48592e-04
       H -3.48732e-03  3.68941e-03 -1.62279e-03
       H  2.35853e-03 -7.30844e-04  3.22633e-03
       O -5.13349e-04 -5.59282e-04  6.95949e-04
       H  5.67847e-04  1.87085e-03 -6.18377e-03
       H  5.32380e-04  3.74220e-03  2.04024e-03
       O -9.58449e-04  3.43909e-04  1.49776e-04
       H -6.89426e-04 -3.79517e-03 -8.36749e-04
       H -3.40313e-03  1.43780e-03  8.53377e-04
       O -5.32533e-04  3.42496e-04  2.47844e-04
       H -1.53273e-03 -2.44353e-03 -1.90720e-03
       H  2.37548e-03  1.82672e-03  9.78730e-04
       O  1.08470e-03 -2.84833e-04  4.97580e-04
       H -4.42645e-03 -2.26224e-03 -1.16305e-03
       H  1.98462e-03  3.19982e-03 -3.01447e-03
       O -8.57713e-04 -4.55698e-04 -6.00552e-06
       H  1.70205e-03  1.52932e-03 -7.04054e-04
       H  1.20350e-03  9.17902e-04 -6.76451e-04
       O -1.48587e-03  5.27173e-04 -5.11809e-04
       H -4.75559e-04  4.47697e-03 -6.13369e-04
       H  2.94742e-03 -1.15539e-03 -7.29141e-04
       O -2.28653e-04  5.92163e-05  1.26773e-04
       H -2.16934e-03 -2.58588e-03  7.37974e-03
       H -3.71722e-03 -3.14197e-03 -8.20844e-03
       O -8.49102e-04 -8.27368e-05  9.13087e-04
       H  3.37146e-03  1.76996e-03 -1.70698e-03
       H  3.15086e-03  9.00122e-04  3.01609e-03
       O  2.92516e-04  5.07332e-04 -4.47760e-04
       H  1.80021e-03  1.64080e-04  5.82553e-03
       H  2.98160e-03  9.24527e-04  2.16046e-03
192
# CELL(abcABC):   16.99620    29.43815    27.67315    90.00000    90.00000    90.00000  Step:          20  Bead:       2 velocities{atomic_unit}  cell{atomic_unit}
       O -5.56618e-04 -4.16422e-04 -1.90587e-04
       H -1.33008e-03 -2.55440e-04  9.45482e-04
       H  1.35811e-03 -4.71015e-03 -4.56371e-03
       O -6.71951e-04  2.64686e-04 -9.26920e-04
       H  6.21783e-04 -5.32213e-03 -1.37557e-03
       H  1.40867e-03  2.02036e-03 -2.57480e-03
       O -2.19282e-04 -8.50802e-05 -3.77652e-04
       H -4.37471e-03 -4.89041e-04  3.58955e-03
       H -8.96830e-04 -5.52017e-03  2.27514e-03
       O -9.68287e-04 -5.98506e-05  4.28737e-04
       H  4.42076e-03 -3.91085e-04  2.47933e-04
       H -2.77581e-03 -3.54195e-04  6.23718e-03
       O  8.13090e-04  1.08216e-03 -1.36415e-03
       H -2.77779e-04  5.31491e-04  2.73381e-03
       H -5.83783e-04  8.38289e-04  2.58890e-03
       O  5.55552e-04  1.19236e-03  2.68683e-05
       H  2.95211e-03 -9.75503e-05 -2.70501e-03
       H  9.09724e-04 -5.75824e-03  3.63148e-04
       O  4.01276e-04 -1.14638e-03 -2.38194e-04
       H -3.48859e-03 -2.60314e-03 -7.40161e-04
       H -2.05052e-03  2.49666e-03 -3.93285e-03
       O -2.97400e-04 -1.48058e-03  5.51265e-04
       H -3.11315e-03  6.78209e-03 -2.87968e-03
       H -3.03511e-03  2.98913e-03 -1.14828e-03
       O -1.66505e-03  1.04092e-03 -1.47465e-03
       H -1.62436e-03 -6.78417e-03  2.59169e-03
       H -2.36887e-03  3.68282e-03 -1.10794e-03
       O -9.02486e-04 -9.94167e-04  1.99771e-03
       H  4.86346e-03  1.45833e-03  2.81913e-03
       H -2.94258e-03  2.85909e-03 -3.25031e-03
       O -6.45633e-04  1.65554e-03  1.91905e-04
       H -3.38594e-03  3.25998e-03  3.57345e-03
       H -2.45408e-03 -7.73801e-03 -4.35924e-03
       O  1.00353e-03 -1.24349e-03 -7.86806e-04
       H  4.09928e-04 -2.16395e-03  7.56938e-04
       H  5.04910e-03 -9.17737e-04  5.35816e-03
       O  1.88885e-04 -1.42157e-03  1.14613e-05
       H  3.82635e-03  3.34477e-03 -2.81797e-03
       H -3.11035e-03 -4.75052e-03  6.12519e-03
       O  7.30264e-07 -8.79994e-04  8.49982e-04
       H  1.17316e-02  9.74570e-04 -2.69291e-03
       H  1.71115e-03 -5.66715e-03 -4.27887e-03
       O -6.33954e-04  7.41250e-04  5.66182e-04
       H -2.75849e-03  4.95949e-03  2.99866e-04
       H  1.02731e-03  3.16093e-03 -2.42207e-03
       O  9.03260e-04  5.33250e-04  3.43207e-04
       H -2.87131e-03 -4.08101e-03  7.78270e-04
       H  2.85408e-03 -2.94921e-03  5.72190e-03
       O  1.43445e-03 -7.73951e-04  1.94574e-04
       H  5.53592e-03 -2.17574e-03 -4.56284e-04
       H -2.85542e-03 -1.55975e-03 -6.44269e-04
       O -2.55557e-03  1.19975e-03 -9.41157e-04
       H -2.86219e-03  1.25477e-03  4.24891e-03
       H  5.70625e-03 -9.04028e-04  2.17722e-03
       O  1.16855e-03  2.60434e-04 -7.84848e-04
       H  1.20444e-04 -2.45341e-03 -3.60330e-03
       H -3.39753e-03 -4.68122e-04  1.20340e-03
       O -5.74181e-04 -1.26749e-03 -4.70755e-04
       H -1.82226e-03 -5.06022e-03 -2.35275e-03
       H -3.17201e-03 -2.72894e-03  5.03612e-03
       O  9.54465e-04  1.52192e-04  1.00744e-03
       H -1.60742e-03 -6.64362e-03 -7.61193e-04
       H  5.49450e-04 -4.27327e-04 -9.68563e-04
       O -7.31208e-04 -5.11135e-04  6.58447e-04
       H -1.14053e-04 -2.13349e-03  5.85382e-03
       H -3.45174e-03  1.19149e-03  3.64863e-03
       O  6.74219e-04  8.90644e-04 -1.24332e-03
       H -1.96055e-03 -1.66625e-03  4.01515e-03
       H -3.06885e-03 -1.89980e-04 -1.10229e-04
       O -8.22486e-04 -7.79054e-05  4.90329e-04
       H -1.43678e-03  9.93705e-04  3.57499e-03
       H  4.82142e-04  2.75127e-03  6.82906e-03
       O -1.06605e-03  6.24517e-04 -8.91409e-04
       H -1.06373e-03  3.70609e-03 -4.26230e-03
       H  1.41916e-04  2.15403e-03  1.51292e-03
       O -6.57477e-04 -1.11099e-03 -5.12245e-04
       H -3.64450e-03  1.28829e-03  3.26812e-03
       H -9.79058e-04 -8.54647e-04  9.37932e-03
       O -4.69306e-04  3.72244e-04 -3.32977e-04
       H  2.13241e-03 -6.43127e-03  4.32497e-04
       H -2.28496e-03  1.93928e-03  1.79915e-03
       O  8.64557e-04 -1.89238e-03 -7.29097e-04
       H  2.29366e-03  3.97726e-03  1.43960e-04
       H -3.73550e-03  3.51774e-03 -1.74629e-03
       O  1.04606e-03  2.03259e-04 -2.20810e-04
       H -4.39913e-04 -3.72553e-03 -4.73696e-04
       H  3.52856e-03 -2.64871e-03 -6.55351e-04
       O  4.62215e-04 -8.55277e-04 -4.81920e-04
       H  3.03572e-03  2.12513e-03  2.47214e-03
       H  3.02711e-03  1.76490e-03  3.90754e-06
       O -5.18179e-04  1.98819e-04 -2.63009e-04
       H  4.64288e-03  6.26516e-04 -2.53388e-03
       H -2.37185e-03 -6.47962e-03 -1.26465e-03
       O  4.57589e-04 -9.41439e-07 -1.66424e-03
       H -2.14918e-03  2.50275e-04  3.66913e-03
       H  2.68769e-03 -4.83530e-03  4.47536e-03
       O -2.25174e-04  5.57226e-04 -7.68046e-04
       H -3.42571e-03  3.98723e-03 -2.39290e-03
       H -3.93944e-04  5.32892e-03  5.10443e-03
       O -2.60036e-04 -2.69547e-04  5.81676e-04
       H -1.02093e-03 -2.31800e-03 -2.50127e-03
       H -1.07500e-03  1.05671e-03 -4.23501e-03
       O -1.03444e-03 -1.31056e-03 -1.67836e-06
       H  4.01921e-03 -8.50674e-03 -1.00174e-02
       H  1.21443e-03 -1.92715e-03 -3.96744e-03
       O -5.38075e-04 -4.54125e-04 -3.72104e-04
       H  1.95428e-03  5.02205e-04  9.01784e-03
       H -2.09488e-03  5.25014e-03 -1.07401e-03
       O -1.00946e-03  7.98953e-04 -1.92747e-04
       H -1.36793e-03  2.21231e-04 -3.61948e-03
       H -1.08528e-03 -4.10439e-03 -2.21229e-03
       O  5.12731e-04 -5.32474e-04 -5.84168e-04
       H  5.22476e-03 -3.71111e-03 -2.33552e-03
       H  2.31788e-03 -7.48556e-03 -6.32452e-03
       O  5.76907e-04 -3.17354e-04 -1.44808e-04
       H -1.20970e-03 -6.45572e-04 -6.48993e-04
       H -2.42959e-03 -2.64433e-03  1.27096e-03
       O -1.58577e-03  4.73524e-04  2.15685e-04
       H -2.48248e-04 -2.79917e-04 -1.33303e-03
       H -4.20613e-03 -7.14662e-03  4.33992e-03
       O -4.47660e-04 -1.19303e-03  6.17685e-04
       H -3.47288e-03 -2.45047e-03 -3.98215e-03
       H -4.68468e-03 -8.73175e-04  4.85774e-03
       O -9.76479e-04 -2.16260e-03  5.80485e-04
       H -5.56099e-03 -3.79271e-03  6.35288e-05
       H  2.46161e-03 -1.31814e-03 -7.17834e-05
       O -6.29249e-04 -1.23768e-03 -6.55776e-04
       H -2.40264e-03  7.07191e-03 -7.14517e-03
       H  6.78808e-03 -2.83204e-03 -3.07679e-03
       O -8.13225e-04 -1.55942e-03  2.13022e-03
       H -2.97720e-03 -1.03472e-03  2.43916e-03
       H -1.22513e-03 -8.21355e-04  7.07639e-03
       O  8.06584e-04  4.10389e-04 -1.15677e-03
       H  7.31166e-03  5.39654e-03  6.84759e-04
       H  1.47409e-03  2.05544e-03 -1.43205e-03
       O -4.97460e-04 -6.86292e-04 -4.35570e-04
       H  1.68386e-03  6.09367e-04 -2.11561e-03
       H  3.74632e-03 -5.33097e-03  1.25050e-03
       O  4.43426e-04  2.28209e-03 -5.82862e-04
       H -3.17168e-03 -3.61552e-04 -3.95080e-03
       H  9.89286e-05 -1.24902e-03  2.42617e-04
       O  1.09218e-03  5.83992e-04  1.03346e-03
       H -7.78252e-04 -5.08716e-04 -6.94309e-03
       H -1.24800e-03 -2.04617e-03 -4.57002e-03
       O -8.83167e-04  9.80293e-04  8.56259e-04
       H -7.67467e-03 -3.31583e-03  1.83884e-04
       H -6.02263e-03 -1.15769e-03  1.51553e-03
       O -1.63192e-04 -1.56306e-03 -1.69842e-03
       H -4.32569e-04  1.18838e-03 -5.80392e-03
       H -7.66050e-03  2.02568e-03 -3.69221e-03
       O -5.47030e-04  2.37338e-04 -7.58791e-04
       H  1.56661e-03 -1.34385e-03  3.35957e-03
       H -2.53652e-03  7.00283e-03  1.17564e-03
       O -2.04780e-03 -7.13053e-04 -4.26489e-04
       H  4.20817e-04  3.99560e-03 -7.95307e-04
       H  6.72964e-03 -4.65872e-03 -6.77036e-04
       O  8.00679e-04  6.14777e-04 -1.17243e-03
       H -6.24134e-03  2.13092e-03  3.01816e-03
       H -1.90339e-03  5.36294e-03 -1.80690e-03
       O -1.18076e-03 -9.31134e-04 -3.30846e-04
       H -2.36363e-03  7.79487e-04 -8.57902e-03
       H -2.87768e-04 -2.59674e-03 -1.39352e-03
       O  3.49169e-04 -2.46004e-04 -5.74206e-04
       H  4.50095e-03 -2.17673e-03  6.58003e-03
       H  2.92666e-03 -4.01445e-05  2.06538e-03
       O  8.08960e-04  2.65339e-03  2.43287e-04
       H -1.56495e-03  1.71820e-03  3.91643e-03
       H  3.31991e-04 -3.20409e-04 -6.39374e-03
       O -1.28848e-03  7.27700e-05  6.50597e-04
       H -9.32092e-04  3.40507e-03 -2.64141e-03
       H -1.34502e-03  2.49249e-03  3.67020e-03
       O  1.88602e-04 -5.96828e-04  1.23731e-03
       H -8.03832e-04  3.19796e-03  3.31784e-03
       H -3.84672e-04 -3.96662e-04  3.23873e-03
       O -1.25850e-03  2.14053e-03  5.71079e-04
       H  5.77432e-04  3.00523e-03  5.20644e-04
       H -4.75983e-03  6.31035e-04  2.63533e-03
       O -4.41203e-04  4.33155e-05  8.18699e-05
       H -3.48771e-03 -6.45734e-03 -3.16337e-04
       H  4.79925e-03 -9.28555e-03  8.88779e-03
       O -1.75964e-03 -7.57577e-04 -4.15203e-04
       H -5.73345e-03 -1.91597e-03 -3.93666e-03
       H  7.51801e-04  1.03297e-03  5.70851e-03
       O  1.20084e-03 -5.25598e-04  3.54785e-04
       H -4.24783e-03  3.09761e-03 -3.43131e-03
       H -7.22005e-04  6.10365e-03 -5.84255e-03
       O -1.92806e-04 -7.44096e-04 -2.04241e-04
       H  4.64054e-03 -4.29395e-03 -4.72258e-03
       H -1.02691e-03  4.84875e-03 -3.99505e-03
       O -7.13235e-05  6.31909e-04  1.29479e-03
       H -2.90885e-03 -2.14040e-03 -4.49032e-03
       H -4.01859e-06 -1.61149e-04  5.40111e-03
192
# CELL(abcABC):   16.99620    29.43815    27.67315    90.00000    90.00000    90.00000  Step:          30  Bead:       2 velocities{atomic_unit}  cell{atomic_unit}
       O  3.99317e-04  1.05435e-03  1.44979e-04
       H  1.89883e-03  2.00453e-03 -7.31208e-04
       H -3.26433e-03  1.70206e-03 -4.06177e-03
       O  5.83157e-04 -6.00569e-04  1.36830e-03
       H  1.34806e-02  1.31441e-03 -7.37025e-04
       H  1.03876e-03  7.90175e-04 -1.34396e-03
       O  3.29281e-04 -4.40635e-05 -4.91476e-04
       H -6.44118e-03  1.57939e-03 -3.46755e-03
       H -3.97869e-04  2.28192e-03  3.66969e-03
       O -9.97864e-04 -6.10004e-04  1.67705e-04
       H -3.62513e-03 -2.37963e-03 -2.78670e-03
       H -1.68364e-03 -4.12017e-03 -2.72137e-04
       O  7.14629e-04  3.89267e-04  9.18927e-04
       H  3.42174e-03 -1.22356e-03  2.80419e-03
       H -2.23924e-03 -4.68111e-03 -2.93854e-03
       O  9.14925e-04 -3.00695e-04  1.21362e-03
       H  2.67239e-03 -2.11755e-03  1.36184e-03
       H -6.05687e-03  2.51916e-03 -1.32089e-04
       O -1.61539e-03  3.87394e-04 -1.42977e-03
       H  2.35723e-03  7.27411e-03 -3.26137e-03
       H -6.85790e-03  7.71906e-03  1.27331e-03
       O  8.27188e-04  2.66340e-04  3.20501e-04
       H -7.20340e-03  1.28622e-03  7.55605e-04
       H  1.50287e-03  2.30436e-03 -1.07805e-03
       O -1.10404e-03 -9.66129e-04 -2.13638e-04
       H -6.44884e-03 -2.91526e-03 -3.90990e-03
       H  1.40347e-04 -3.68898e-03  8.53443e-03
       O  2.38679e-03 -2.19498e-04  9.73938e-04
       H  2.91776e-03 -2.67524e-03 -2.78343e-03
       H -6.63885e-04  2.50466e-03 -2.24104e-03
       O -2.85958e-04  1.01910e-04 -8.61805e-04
       H  9.89798e-04  9.65930e-04  2.91949e-03
       H  7.58976e-04  1.50357e-03 -2.02928e-03
       O  2.91156e-04  1.85519e-03 -1.35724e-03
       H  4.35749e-03  3.47864e-03  4.26796e-03