192
# CELL(abcABC):   16.99620    29.43815    27.67315    90.00000    90.00000    90.00000  Step:           0  Bead:       5 positions{atomic_unit}  cell{atomic_unit}
       O -8.22215e+00 -9.94239e+00 -1.31733e+01
       H  7.30664e+00 -1.09711e+01 -1.36322e+01
       H -6.70615e+00 -1.09482e+01 -1.35006e+01
       O -3.97298e+00 -2.58228e+00 -1.31734e+01
       H -5.44033e+00 -3.61131e+00 -1.36317e+01
       H -2.45697e+00 -3.58820e+00 -1.35005e+01
       O -3.95756e+00 -1.25543e+01 -7.82386e-01
       H -3.95604e+00 -1.43515e+01 -2.29143e-01
       H -4.14759e+00 -1.25671e+01 -2.59983e+00
       O -8.20667e+00 -5.19495e+00 -7.82227e-01
       H -8.20527e+00 -6.99211e+00 -2.28860e-01
       H -8.39642e+00 -5.20788e+00 -2.59970e+00
       O -4.52495e+00 -1.21366e+01 -6.25523e+00
       H -6.04104e+00 -1.11308e+01 -6.58223e+00
       H -3.05766e+00 -1.11077e+01 -6.71383e+00
       O  8.22247e+00 -4.77716e+00 -6.25561e+00
       H  6.70639e+00 -3.77128e+00 -6.58235e+00
       H -7.30644e+00 -3.74813e+00 -6.71411e+00
       O  8.20650e+00 -9.52435e+00 -7.70064e+00
       H  8.39647e+00 -9.51190e+00 -9.51809e+00
       H  8.20529e+00 -7.72704e+00 -7.14768e+00
       O -4.54027e+00 -2.16431e+00 -7.70075e+00
       H -4.35006e+00 -2.15153e+00 -9.51816e+00
       H -4.54166e+00 -3.67089e-01 -7.14744e+00
       O -8.22211e+00 -9.94193e+00  6.63469e-01
       H  7.30672e+00 -1.09707e+01  2.04633e-01
       H -6.70609e+00 -1.09478e+01  3.36365e-01
       O -3.97290e+00 -2.58257e+00  6.63081e-01
       H -5.44032e+00 -3.61148e+00  2.04655e-01
       H -2.45688e+00 -3.58848e+00  3.35971e-01
       O -3.95760e+00 -1.25545e+01  1.30538e+01
       H -3.95614e+00 -1.43517e+01  1.36071e+01
       H -4.14757e+00 -1.25673e+01  1.12363e+01
       O -8.20656e+00 -5.19529e+00  1.30545e+01
       H -8.20517e+00 -6.99250e+00  1.36078e+01
       H -8.39634e+00 -5.20824e+00  1.12370e+01
       O -4.52490e+00 -1.21367e+01  7.58138e+00
       H -6.04102e+00 -1.11309e+01  7.25435e+00
       H -3.05757e+00 -1.11078e+01  7.12272e+00
       O  8.22232e+00 -4.77760e+00  7.58065e+00
       H  6.70627e+00 -3.77169e+00  7.25392e+00
       H -7.30657e+00 -3.74862e+00  7.12211e+00
       O  8.20656e+00 -9.52478e+00  6.13597e+00
       H  8.39651e+00 -9.51229e+00  4.31849e+00
       H  8.20527e+00 -7.72747e+00  6.68889e+00
       O -4.54025e+00 -2.16471e+00  6.13560e+00
       H -4.34999e+00 -2.15183e+00  4.31818e+00
       H -4.54168e+00 -3.67533e-01  6.68897e+00
       O -8.22212e+00  4.77724e+00 -1.31733e+01
       H  7.30671e+00  3.74833e+00 -1.36320e+01
       H -6.70607e+00  3.77135e+00 -1.35002e+01
       O -3.97288e+00  1.21369e+01 -1.31734e+01
       H -5.44030e+00  1.11079e+01 -1.36317e+01
       H -2.45689e+00  1.11310e+01 -1.35006e+01
       O -3.95757e+00  2.16435e+00 -7.82368e-01
       H -3.95607e+00  3.67109e-01 -2.29207e-01
       H -4.14756e+00  2.15166e+00 -2.59983e+00
       O -8.20667e+00  9.52420e+00 -7.81868e-01
       H -8.20527e+00  7.72699e+00 -2.28645e-01
       H -8.39652e+00  9.51128e+00 -2.59932e+00
       O -4.52494e+00  2.58246e+00 -6.25501e+00
       H -6.04100e+00  3.58821e+00 -6.58223e+00
       H -3.05758e+00  3.61139e+00 -6.71360e+00
       O  8.22236e+00  9.94146e+00 -6.25587e+00
       H  6.70631e+00  1.09474e+01 -6.58279e+00
       H -7.30653e+00  1.09705e+01 -6.71435e+00
       O  8.20665e+00  5.19438e+00 -7.70097e+00
       H  8.39659e+00  5.20693e+00 -9.51844e+00
       H  8.20533e+00  6.99167e+00 -7.14797e+00
       O -4.54026e+00  1.25545e+01 -7.70081e+00
       H -4.34992e+00  1.25674e+01 -9.51823e+00
       H -4.54169e+00  1.43517e+01 -7.14749e+00
       O -8.22210e+00  4.77691e+00  6.62996e-01
       H  7.30665e+00  3.74808e+00  2.04431e-01
       H -6.70613e+00  3.77091e+00  3.36028e-01
       O -3.97279e+00  1.21369e+01  6.63306e-01
       H -5.44019e+00  1.11079e+01  2.05006e-01
       H -2.45681e+00  1.11309e+01  3.36133e-01
       O -3.95757e+00  2.16479e+00  1.30545e+01
       H -3.95616e+00  3.67575e-01  1.36077e+01
       H -4.14769e+00  2.15200e+00  1.12370e+01
       O -8.20659e+00  9.52434e+00  1.30546e+01
       H -8.20522e+00  7.72713e+00  1.36079e+01
       H -8.39644e+00  9.51145e+00  1.12371e+01
       O -4.52499e+00  2.58228e+00  7.58148e+00
       H -6.04100e+00  3.58814e+00  7.25437e+00
       H -3.05766e+00  3.61126e+00  7.12297e+00
       O  8.22229e+00  9.94203e+00  7.58108e+00
       H  6.70627e+00  1.09480e+01  7.25419e+00
       H -7.30655e+00  1.09710e+01  7.12260e+00
       O  8.20668e+00  5.19493e+00  6.13567e+00
       H  8.39670e+00  5.20749e+00  4.31823e+00
       H  8.20535e+00  6.99219e+00  6.68874e+00
       O -4.54018e+00  1.25546e+01  6.13603e+00
       H -4.34989e+00  1.25674e+01  4.31861e+00
       H -4.54161e+00  1.43518e+01  6.68925e+00
       O  2.75877e-01 -9.94198e+00 -1.31737e+01
       H -1.19147e+00 -1.09709e+01 -1.36323e+01
       H  1.79191e+00 -1.09478e+01 -1.35009e+01
       O  4.52479e+00 -2.58220e+00 -1.31736e+01
       H  3.05750e+00 -3.61120e+00 -1.36322e+01
       H  6.04084e+00 -3.58815e+00 -1.35003e+01
       O  4.54038e+00 -1.25538e+01 -7.82378e-01
       H  4.54166e+00 -1.43510e+01 -2.29173e-01
       H  4.35042e+00 -1.25666e+01 -2.59983e+00
       O  2.91382e-01 -5.19489e+00 -7.82498e-01
       H  2.92775e-01 -6.99208e+00 -2.29179e-01
       H  1.01240e-01 -5.20770e+00 -2.59994e+00
       O  3.97307e+00 -1.21369e+01 -6.25482e+00
       H  2.45707e+00 -1.11310e+01 -6.58187e+00
       H  5.44043e+00 -1.11080e+01 -6.71350e+00
       O -2.76167e-01 -4.77714e+00 -6.25484e+00
       H -1.79215e+00 -3.77120e+00 -6.58193e+00
       H  1.19122e+00 -3.74822e+00 -6.71327e+00
       O -2.91294e-01 -9.52406e+00 -7.70061e+00
       H -1.01153e-01 -9.51128e+00 -9.51804e+00
       H -2.92737e-01 -7.72684e+00 -7.14734e+00
       O  3.95740e+00 -2.16468e+00 -7.70029e+00
       H  4.14711e+00 -2.15178e+00 -9.51779e+00
       H  3.95613e+00 -3.67477e-01 -7.14700e+00
       O  2.75838e-01 -9.94166e+00  6.63265e-01
       H -1.19143e+00 -1.09706e+01  2.04532e-01
       H  1.79197e+00 -1.09474e+01  3.36068e-01
       O  4.52471e+00 -2.58218e+00  6.62891e-01
       H  3.05743e+00 -3.61117e+00  2.04240e-01
       H  6.04080e+00 -3.58806e+00  3.36089e-01
       O  4.54037e+00 -1.25543e+01  1.30539e+01
       H  4.54173e+00 -1.43516e+01  1.36070e+01
       H  4.35050e+00 -1.25670e+01  1.12364e+01
       O  2.91297e-01 -5.19502e+00  1.30541e+01
       H  2.92732e-01 -6.99225e+00  1.36074e+01
       H  1.01206e-01 -5.20786e+00  1.12367e+01
       O  3.97310e+00 -1.21368e+01  7.58177e+00
       H  2.45707e+00 -1.11309e+01  7.25464e+00
       H  5.44051e+00 -1.11080e+01  7.12302e+00
       O -2.76100e-01 -4.77767e+00  7.58136e+00
       H -1.79210e+00 -3.77177e+00  7.25428e+00
       H  1.19125e+00 -3.74871e+00  7.12290e+00
       O -2.91340e-01 -9.52458e+00  6.13593e+00
       H -1.01282e-01 -9.51181e+00  4.31852e+00
       H -2.92762e-01 -7.72734e+00  6.68916e+00
       O  3.95728e+00 -2.16475e+00  6.13602e+00
       H  4.14704e+00 -2.15175e+00  4.31853e+00
       H  3.95603e+00 -3.67615e-01  6.68942e+00
       O  2.75872e-01  4.77775e+00 -1.31735e+01
       H -1.19145e+00  3.74868e+00 -1.36320e+01
       H  1.79192e+00  3.77189e+00 -1.35005e+01
       O  4.52473e+00  1.21369e+01 -1.31737e+01
       H  3.05744e+00  1.11080e+01 -1.36325e+01
       H  6.04082e+00  1.11311e+01 -1.35004e+01
       O  4.54033e+00  2.16480e+00 -7.82502e-01
       H  4.54166e+00  3.67553e-01 -2.29384e-01
       H  4.35052e+00  2.15214e+00 -2.60000e+00
       O  2.91442e-01  9.52423e+00 -7.82681e-01
       H  2.92837e-01  7.72701e+00 -2.29452e-01
       H  1.01299e-01  9.51146e+00 -2.60013e+00
       O  3.97319e+00  2.58230e+00 -6.25496e+00
       H  2.45717e+00  3.58819e+00 -6.58198e+00
       H  5.44056e+00  3.61109e+00 -6.71379e+00
       O -2.76125e-01  9.94167e+00 -6.25515e+00
       H -1.79212e+00  1.09476e+01 -6.58222e+00
       H  1.19126e+00  1.09706e+01 -6.71377e+00
       O -2.91369e-01  5.19475e+00 -7.70046e+00
       H -1.01380e-01  5.20765e+00 -9.51793e+00
       H -2.92793e-01  6.99195e+00 -7.14718e+00
       O  3.95737e+00  1.25543e+01 -7.70076e+00
       H  4.14703e+00  1.25673e+01 -9.51824e+00
       H  3.95606e+00  1.43514e+01 -7.14726e+00
       O  2.75794e-01  4.77734e+00  6.62959e-01
       H -1.19152e+00  3.74832e+00  2.04499e-01
       H  1.79186e+00  3.77147e+00  3.35887e-01
       O  4.52464e+00  1.21373e+01  6.62988e-01
       H  3.05745e+00  1.11082e+01  2.04218e-01
       H  6.04076e+00  1.11314e+01  3.36450e-01
       O  4.54041e+00  2.16499e+00  1.30543e+01
       H  4.54178e+00  3.67749e-01  1.36074e+01
       H  4.35054e+00  2.15228e+00  1.12368e+01
       O  2.91308e-01  9.52457e+00  1.30538e+01
       H  2.92715e-01  7.72735e+00  1.36071e+01
       H  1.01225e-01  9.51181e+00  1.12363e+01
       O  3.97315e+00  2.58235e+00  7.58152e+00
       H  2.45713e+00  3.58829e+00  7.25455e+00
       H  5.44048e+00  3.61122e+00  7.12279e+00
       O -2.76008e-01  9.94202e+00  7.58171e+00
       H -1.79205e+00  1.09479e+01  7.25468e+00
       H  1.19134e+00  1.09710e+01  7.12317e+00
       O -2.91416e-01  5.19510e+00  6.13606e+00
       H -1.01371e-01  5.20795e+00  4.31863e+00
       H -2.92777e-01  6.99228e+00  6.68938e+00
       O  3.95729e+00  1.25546e+01  6.13612e+00
       H  4.14688e+00  1.25676e+01  4.31864e+00
       H  3.95603e+00  1.43518e+01  6.68952e+00
192
# CELL(abcABC):   16.99620    29.43815    27.67315    90.00000    90.00000    90.00000  Step:          10  Bead:       5 positions{atomic_unit}  cell{atomic_unit}
       O -8.19263e+00 -1.00149e+01 -1.31697e+01
       H  7.37418e+00 -1.10480e+01 -1.34916e+01
       H -6.65587e+00 -1.09484e+01 -1.37257e+01
       O -3.94660e+00 -2.57966e+00 -1.31868e+01
       H -5.74161e+00 -3.56598e+00 -1.36441e+01
       H -2.43535e+00 -3.60643e+00 -1.38760e+01
       O -3.98503e+00 -1.25746e+01 -7.72560e-01
       H -3.93766e+00 -1.42720e+01 -2.16357e-01
       H -3.89777e+00 -1.26443e+01 -3.00361e+00
       O -8.25046e+00 -5.20397e+00 -7.73624e-01
       H -7.98463e+00 -6.92739e+00 -6.72058e-02
       H -8.84378e+00 -5.22842e+00 -2.40966e+00
       O -4.52060e+00 -1.20842e+01 -6.20219e+00
       H -6.10083e+00 -1.12505e+01 -6.63825e+00
       H -2.90677e+00 -1.11292e+01 -6.63111e+00
       O  8.21853e+00 -4.71457e+00 -6.28181e+00
       H  6.64506e+00 -3.73070e+00 -6.64190e+00
       H -7.43960e+00 -3.68356e+00 -6.64156e+00
       O  8.15686e+00 -9.52368e+00 -7.71816e+00
       H  8.44696e+00 -9.32272e+00 -9.41835e+00
       H  8.26070e+00 -7.72536e+00 -7.18698e+00
       O -4.58439e+00 -2.18931e+00 -7.68843e+00
       H -4.31582e+00 -1.95887e+00 -9.56276e+00
       H -4.72156e+00 -4.37738e-01 -7.06081e+00
       O -8.25473e+00 -9.88584e+00  6.98971e-01
       H  6.92670e+00 -1.08659e+01  1.79079e-01
       H -6.70787e+00 -1.11817e+01  3.32544e-01
       O -3.88543e+00 -2.55759e+00  6.42802e-01
       H -5.24404e+00 -3.76599e+00  3.95475e-01
       H -2.59894e+00 -3.78276e+00  1.67744e-01
       O -3.88481e+00 -1.25173e+01  1.30643e+01
       H -4.02280e+00 -1.45552e+01  1.36605e+01
       H -4.22321e+00 -1.28318e+01  1.12837e+01
       O -8.20777e+00 -5.19386e+00  1.30837e+01
       H -8.22957e+00 -6.99673e+00  1.35683e+01
       H -8.12365e+00 -5.37166e+00  1.11618e+01
       O -4.46149e+00 -1.21351e+01  7.58126e+00
       H -5.90771e+00 -1.08787e+01  6.93782e+00
       H -3.00844e+00 -1.09086e+01  7.61148e+00
       O  8.23638e+00 -4.78064e+00  7.51966e+00
       H  6.83025e+00 -3.94129e+00  7.45801e+00
       H -7.36174e+00 -3.58556e+00  7.05446e+00
       O  8.18048e+00 -9.53252e+00  6.12520e+00
       H  8.47912e+00 -9.50963e+00  4.44278e+00
       H  8.13090e+00 -7.87876e+00  6.77738e+00
       O -4.55457e+00 -2.19813e+00  6.09947e+00
       H -4.43986e+00 -1.79655e+00  4.45654e+00
       H -4.20532e+00 -5.09290e-01  6.90324e+00
       O -8.23721e+00  4.72669e+00 -1.32322e+01
       H  7.37209e+00  3.77642e+00 -1.38133e+01
       H -6.66588e+00  3.85288e+00 -1.35788e+01
       O -4.02860e+00  1.21640e+01 -1.31561e+01
       H -5.48825e+00  1.11206e+01 -1.34616e+01
       H -2.51817e+00  1.13861e+01 -1.34344e+01
       O -3.94088e+00  2.18581e+00 -8.55652e-01
       H -4.02724e+00  5.05775e-01 -3.12918e-01
       H -4.18986e+00  2.19684e+00 -2.66391e+00
       O -8.19830e+00  9.55215e+00 -7.92946e-01
       H -7.99240e+00  7.80667e+00 -1.48308e-01
       H -8.46964e+00  9.60517e+00 -2.56943e+00
       O -4.49438e+00  2.58938e+00 -6.27651e+00
       H -5.78707e+00  3.67187e+00 -6.57531e+00
       H -3.16357e+00  3.57265e+00 -6.88703e+00
       O  8.22620e+00  9.96079e+00 -6.26548e+00
       H  6.59198e+00  1.07502e+01 -6.35027e+00
       H -7.42434e+00  1.13142e+01 -6.64385e+00
       O  8.17051e+00  5.23657e+00 -7.71466e+00
       H  8.18990e+00  4.90634e+00 -9.44583e+00
       H  8.10437e+00  7.06543e+00 -7.14501e+00
       O -4.53073e+00  1.24763e+01 -7.71479e+00
       H -4.43324e+00  1.25496e+01 -9.35000e+00
       H -4.67931e+00  1.45695e+01 -7.21919e+00
       O -8.35244e+00  4.73087e+00  6.55015e-01
       H  7.25060e+00  3.66645e+00  3.44998e-01
       H -6.75147e+00  3.54097e+00  4.86356e-01
       O -3.99071e+00  1.21039e+01  6.39179e-01
       H -5.38002e+00  1.09857e+01  4.16705e-01
       H -2.38354e+00  1.12373e+01  3.43125e-01
       O -4.01129e+00  2.16096e+00  1.30773e+01
       H -3.98387e+00  3.87437e-01  1.38140e+01
       H -4.49042e+00  2.37240e+00  1.12264e+01
       O -8.19355e+00  9.51394e+00  1.30731e+01
       H -8.29294e+00  7.63616e+00  1.35389e+01
       H -8.36937e+00  9.58717e+00  1.09087e+01
       O -4.48924e+00  2.54078e+00  7.59599e+00
       H -5.90862e+00  3.56876e+00  7.48431e+00
       H -3.00688e+00  3.41250e+00  7.17921e+00
       O  8.22460e+00  9.90797e+00  7.54967e+00
       H  6.73189e+00  1.10259e+01  7.26982e+00
       H -7.29700e+00  1.09470e+01  7.03796e+00
       O  8.16362e+00  5.24522e+00  6.08777e+00
       H  8.61125e+00  5.39208e+00  4.37724e+00
       H  8.23647e+00  7.11290e+00  6.67023e+00
       O -4.53059e+00  1.26020e+01  6.12712e+00
       H -4.52201e+00  1.22527e+01  4.26449e+00
       H -4.44456e+00  1.44568e+01  6.69262e+00
       O  3.72065e-01 -9.93532e+00 -1.32415e+01
       H -1.15821e+00 -1.12533e+01 -1.33442e+01
       H  1.72994e+00 -1.11222e+01 -1.35000e+01
       O  4.53820e+00 -2.54214e+00 -1.31121e+01
       H  2.82204e+00 -3.74881e+00 -1.35231e+01
       H  6.18705e+00 -3.76350e+00 -1.34280e+01
       O  4.53557e+00 -1.25984e+01 -7.76475e-01
       H  4.52364e+00 -1.44091e+01 -2.70356e-01
       H  4.43367e+00 -1.24767e+01 -2.70190e+00
       O  2.73891e-01 -5.21977e+00 -7.54310e-01
       H  2.82528e-01 -6.98990e+00 -1.81428e-01
       H  1.14664e-01 -5.09220e+00 -2.53701e+00
       O  3.95200e+00 -1.21214e+01 -6.23996e+00
       H  2.23397e+00 -1.09237e+01 -6.40169e+00
       H  5.40017e+00 -1.13866e+01 -6.92992e+00
       O -3.16262e-01 -4.74788e+00 -6.25342e+00
       H -1.89171e+00 -3.84961e+00 -6.58301e+00
       H  1.62788e+00 -3.94473e+00 -6.83341e+00
       O -3.35353e-01 -9.59492e+00 -7.69901e+00
       H  5.98767e-03 -9.53207e+00 -9.34504e+00
       H -4.09619e-01 -7.57028e+00 -7.05474e+00
       O  3.92041e+00 -2.21833e+00 -7.71492e+00
       H  4.38998e+00 -2.52853e+00 -9.31045e+00
       H  3.90403e+00 -3.85503e-01 -7.17274e+00
       O  2.76962e-01 -9.98122e+00  6.81276e-01
       H -9.76064e-01 -1.09314e+01  3.70146e-01
       H  1.91230e+00 -1.07659e+01  2.48317e-01
       O  4.47825e+00 -2.58889e+00  6.36489e-01
       H  2.70284e+00 -3.79016e+00  3.49686e-01
       H  6.13855e+00 -3.42495e+00  4.25083e-01
       O  4.57329e+00 -1.25774e+01  1.30675e+01
       H  4.42769e+00 -1.44614e+01  1.36526e+01
       H  4.10041e+00 -1.24665e+01  1.14681e+01
       O  2.57123e-01 -5.15287e+00  1.31595e+01
       H  7.13380e-02 -7.15689e+00  1.35517e+01
       H  6.95051e-03 -5.24340e+00  1.11365e+01
       O  3.95057e+00 -1.21429e+01  7.47069e+00
       H  2.50750e+00 -1.09973e+01  7.37983e+00
       H  5.30175e+00 -1.10565e+01  6.97867e+00
       O -2.50253e-01 -4.74891e+00  7.58633e+00
       H -1.99514e+00 -3.87076e+00  7.23198e+00
       H  1.21118e+00 -3.60696e+00  7.19564e+00
       O -2.40807e-01 -9.50676e+00  6.11348e+00
       H -8.05581e-02 -9.44350e+00  4.35731e+00
       H -2.73432e-01 -7.67292e+00  6.48218e+00
       O  4.04558e+00 -2.13113e+00  6.11607e+00
       H  4.46687e+00 -2.07799e+00  4.47350e+00
       H  4.08609e+00 -1.62182e-01  6.55919e+00
       O  2.38081e-01  4.73688e+00 -1.31588e+01
       H -9.83302e-01  3.78734e+00 -1.39603e+01
       H  1.62200e+00  3.86677e+00 -1.37925e+01
       O  4.51381e+00  1.21620e+01 -1.31668e+01
       H  3.15906e+00  1.09936e+01 -1.38985e+01
       H  6.03610e+00  1.11693e+01 -1.36911e+01
       O  4.57086e+00  2.18273e+00 -7.62099e-01
       H  4.35174e+00  4.77082e-01 -3.00118e-01
       H  4.26898e+00  2.36326e+00 -2.53271e+00
       O  2.02564e-01  9.48231e+00 -7.54974e-01
       H  6.89512e-01  7.74885e+00 -1.41965e-01
       H  2.35663e-01  9.53278e+00 -2.71975e+00
       O  3.96500e+00  2.58068e+00 -6.19537e+00
       H  2.58314e+00  3.59278e+00 -6.49721e+00
       H  5.55682e+00  3.72984e+00 -6.48059e+00
       O -3.06626e-01  9.94660e+00 -6.29147e+00
       H -1.84113e+00  1.07870e+01 -6.67061e+00
       H  1.23533e+00  1.08153e+01 -6.56118e+00
       O -3.24578e-01  5.20077e+00 -7.63126e+00
       H  5.45008e-02  5.19854e+00 -9.47777e+00
       H -2.29382e-01  6.94558e+00 -6.89624e+00
       O  3.90098e+00  1.26095e+01 -7.75425e+00
       H  4.28825e+00  1.26265e+01 -9.58274e+00
       H  4.02399e+00  1.43122e+01 -7.04975e+00
       O  2.86851e-01  4.82109e+00  6.54509e-01
       H -1.12280e+00  3.63141e+00  2.74583e-01
       H  1.72923e+00  3.62268e+00  3.52636e-01
       O  4.50286e+00  1.20750e+01  6.95129e-01
       H  3.11024e+00  1.13179e+01  2.26163e-01
       H  6.23923e+00  1.13003e+01  5.01916e-01
       O  4.49099e+00  2.21178e+00  1.30948e+01
       H  4.46119e+00  2.03289e-01  1.36841e+01
       H  4.36879e+00  2.03400e+00  1.12222e+01
       O  3.11155e-01  9.40799e+00  1.29949e+01
       H  2.56097e-01  7.43866e+00  1.35032e+01
       H -8.75902e-02  9.31735e+00  1.12380e+01
       O  3.95677e+00  2.55280e+00  7.62320e+00
       H  2.21582e+00  3.01346e+00  7.23486e+00
       H  5.56013e+00  3.44835e+00  7.14104e+00
       O -1.98722e-01  9.87140e+00  7.65778e+00
       H -1.72336e+00  1.10225e+01  7.26683e+00
       H  1.10254e+00  1.12140e+01  7.44293e+00
       O -3.26244e-01  5.21424e+00  6.06305e+00
       H -7.52497e-02  5.32234e+00  4.22323e+00
       H -7.13038e-02  7.06787e+00  6.67979e+00
       O  3.97995e+00  1.25721e+01  6.13414e+00
       H  3.94208e+00  1.28809e+01  4.13014e+00
       H  3.83641e+00  1.43636e+01  6.44132e+00
192
# CELL(abcABC):   16.99620    29.43815    27.67315    90.00000    90.00000    90.00000  Step:          20  Bead:       5 positions{atomic_unit}  cell{atomic_unit}
       O -8.22257e+00 -9.99258e+00 -1.30598e+01
       H  7.34221e+00 -1.10598e+01 -1.36737e+01
       H -6.54188e+00 -1.10974e+01 -1.38370e+01
       O -3.91604e+00 -2.59652e+00 -1.31315e+01
       H -5.38785e+00 -3.84885e+00 -1.40126e+01
       H -2.35025e+00 -3.65847e+00 -1.37054e+01
       O -4.03602e+00 -1.25384e+01 -8.01120e-01
       H -3.91804e+00 -1.42379e+01 -3.58394e-01
       H -4.25881e+00 -1.27200e+01 -2.71296e+00
       O -8.24605e+00 -5.18306e+00 -8.11585e-01
       H -8.09850e+00 -7.09536e+00 -2.20120e-01
       H -8.61520e+00 -5.10377e+00 -2.51025e+00
       O -4.49516e+00 -1.20674e+01 -6.24549e+00
       H -6.00430e+00 -1.10787e+01 -6.62723e+00
       H -2.69853e+00 -1.13415e+01 -6.74828e+00
       O  8.23456e+00 -4.67578e+00 -6.26530e+00
       H  6.89949e+00 -3.44790e+00 -6.76027e+00
       H -7.18228e+00 -3.77740e+00 -6.70981e+00
       O  8.18313e+00 -9.60021e+00 -7.66570e+00
       H  8.25573e+00 -9.28338e+00 -9.31122e+00
       H  8.23883e+00 -7.61995e+00 -7.28551e+00
       O -4.62033e+00 -2.18324e+00 -7.70601e+00
       H -4.25657e+00 -2.22574e+00 -9.58343e+00
       H -4.78605e+00 -2.38970e-01 -7.18344e+00
       O -8.38016e+00 -9.93291e+00  6.74303e-01
       H  6.97569e+00 -1.09347e+01  4.21147e-01
       H -6.73867e+00 -1.08475e+01  1.51018e-01
       O -3.87499e+00 -2.61101e+00  7.82491e-01
       H -5.42715e+00 -3.81909e+00  3.91979e-01
       H -2.47747e+00 -3.95391e+00  3.76521e-01
       O -3.87807e+00 -1.25625e+01  1.30713e+01
       H -4.19230e+00 -1.42178e+01  1.34635e+01
       H -4.16531e+00 -1.30699e+01  1.11751e+01
       O -8.21191e+00 -5.21744e+00  1.30656e+01
       H -8.30856e+00 -7.02504e+00  1.38251e+01
       H -7.99041e+00 -5.19321e+00  1.11637e+01
       O -4.48688e+00 -1.21711e+01  7.59545e+00
       H -6.14470e+00 -1.08775e+01  7.24429e+00
       H -3.10896e+00 -1.07862e+01  7.49503e+00
       O  8.26283e+00 -4.75507e+00  7.49779e+00
       H  6.93374e+00 -3.75189e+00  7.53864e+00
       H -7.12223e+00 -3.68263e+00  7.03899e+00
       O  8.12521e+00 -9.53496e+00  6.13294e+00
       H  8.36360e+00 -9.61648e+00  4.43038e+00
       H  8.00972e+00 -7.94100e+00  7.23422e+00
       O -4.59888e+00 -2.14776e+00  6.19397e+00
       H -4.67000e+00 -1.88877e+00  4.31250e+00
       H -4.38125e+00 -4.25309e-01  7.00069e+00
       O -8.22725e+00  4.71468e+00 -1.33254e+01
       H  7.18946e+00  3.48942e+00 -1.35088e+01
       H -6.66144e+00  3.74789e+00 -1.35070e+01
       O -3.96096e+00  1.22558e+01 -1.31426e+01
       H -5.45926e+00  1.11630e+01 -1.33640e+01
       H -2.29898e+00  1.12701e+01 -1.33859e+01
       O -3.86227e+00  2.12864e+00 -8.83210e-01
       H -4.39736e+00  3.80375e-01 -4.10190e-01
       H -4.12361e+00  1.90336e+00 -2.56168e+00
       O -8.24473e+00  9.54940e+00 -8.14761e-01
       H -7.99436e+00  7.90612e+00 -1.70613e-01
       H -8.69408e+00  9.71294e+00 -2.51731e+00
       O -4.50699e+00  2.56089e+00 -6.24693e+00
       H -6.09846e+00  3.55686e+00 -6.65585e+00
       H -3.01255e+00  3.46700e+00 -7.10283e+00
       O  8.17292e+00  9.98368e+00 -6.30255e+00
       H  6.30164e+00  1.07335e+01 -6.58754e+00
       H -7.40187e+00  1.09966e+01 -6.65134e+00
       O  8.20884e+00  5.23877e+00 -7.64445e+00
       H  8.35677e+00  4.98995e+00 -9.64441e+00
       H  8.32028e+00  7.11774e+00 -7.38005e+00
       O -4.53228e+00  1.25094e+01 -7.74731e+00
       H -4.69151e+00  1.24940e+01 -9.62279e+00
       H -4.54420e+00  1.46349e+01 -7.23930e+00
       O -8.30914e+00  4.73017e+00  6.33571e-01
       H  7.17844e+00  3.74157e+00  1.13788e-02
       H -6.84213e+00  3.64747e+00  5.13611e-01
       O -4.02842e+00  1.20995e+01  6.92235e-01
       H -5.34891e+00  1.11062e+01  5.55256e-01
       H -2.37107e+00  1.08775e+01  4.69986e-01
       O -4.04482e+00  2.08897e+00  1.29969e+01
       H -3.86374e+00  4.39176e-01  1.35741e+01
       H -4.52156e+00  2.12914e+00  1.12450e+01
       O -8.17521e+00  9.43407e+00  1.30758e+01
       H -8.36789e+00  7.64594e+00  1.34380e+01
       H -8.39910e+00  9.65335e+00  1.10010e+01
       O -4.47001e+00  2.57266e+00  7.55765e+00
       H -6.28874e+00  3.47953e+00  7.39588e+00
       H -3.12362e+00  3.51677e+00  7.08314e+00
       O  8.21843e+00  9.94029e+00  7.55601e+00
       H  6.77122e+00  1.12349e+01  7.32726e+00
       H -7.48564e+00  1.08822e+01  7.15156e+00
       O  8.14035e+00  5.24055e+00  6.02381e+00
       H  8.62667e+00  5.47603e+00  4.40727e+00
       H  8.37078e+00  6.95191e+00  6.86726e+00
       O -4.51718e+00  1.25196e+01  6.16079e+00
       H -4.49932e+00  1.24767e+01  3.78775e+00
       H -4.45171e+00  1.43033e+01  6.70802e+00
       O  3.47790e-01 -9.86503e+00 -1.32613e+01
       H -1.15011e+00 -1.11738e+01 -1.31207e+01
       H  1.69523e+00 -1.13139e+01 -1.34086e+01
       O  4.62481e+00 -2.52457e+00 -1.30656e+01
       H  3.22238e+00 -3.73779e+00 -1.34048e+01
       H  6.33612e+00 -3.79046e+00 -1.34283e+01
       O  4.60752e+00 -1.26436e+01 -8.62922e-01
       H  4.41050e+00 -1.44868e+01 -3.09962e-01
       H  4.32642e+00 -1.26303e+01 -2.64651e+00
       O  2.41867e-01 -5.29777e+00 -7.73570e-01
       H  3.98280e-02 -7.10373e+00 -1.06010e-01
       H  2.81228e-01 -5.25597e+00 -2.58836e+00
       O  3.88154e+00 -1.21071e+01 -6.29323e+00
       H  2.15141e+00 -1.09289e+01 -6.39276e+00
       H  5.46453e+00 -1.12476e+01 -7.08716e+00
       O -3.11451e-01 -4.80359e+00 -6.28661e+00
       H -1.87680e+00 -3.70935e+00 -6.81485e+00
       H  1.42598e+00 -3.72874e+00 -6.60699e+00
       O -3.61392e-01 -9.56315e+00 -7.69241e+00
       H  3.88050e-02 -9.55679e+00 -9.45144e+00
       H -1.63747e-01 -7.71923e+00 -7.36497e+00
       O  3.90361e+00 -2.19842e+00 -7.70999e+00
       H  4.29695e+00 -2.60366e+00 -9.56790e+00
       H  4.14626e+00 -3.49397e-01 -7.38344e+00
       O  2.46213e-01 -9.97717e+00  6.70181e-01
       H -1.17536e+00 -1.10298e+01  6.66366e-02
       H  1.71379e+00 -1.07993e+01  2.41920e-01
       O  4.61507e+00 -2.60588e+00  6.80003e-01
       H  2.93024e+00 -3.86566e+00  5.10498e-01
       H  6.13819e+00 -3.66257e+00  2.41980e-01
       O  4.55970e+00 -1.25332e+01  1.31935e+01
       H  4.46167e+00 -1.44540e+01  1.35237e+01
       H  4.16417e+00 -1.24666e+01  1.14092e+01
       O  3.47643e-01 -5.14858e+00  1.31318e+01
       H -3.20235e-02 -7.00977e+00  1.36780e+01
       H  6.46725e-02 -5.37257e+00  1.12039e+01
       O  3.94618e+00 -1.21090e+01  7.53081e+00
       H  2.47062e+00 -1.08612e+01  7.45358e+00
       H  5.28242e+00 -1.07760e+01  6.97638e+00
       O -2.07172e-01 -4.79734e+00  7.51371e+00
       H -1.77232e+00 -3.89236e+00  6.98467e+00
       H  1.21932e+00 -3.68965e+00  7.25419e+00
       O -2.67626e-01 -9.50433e+00  6.04619e+00
       H -8.20576e-02 -9.58497e+00  4.28860e+00
       H -1.29897e-01 -7.65073e+00  6.51412e+00
       O  4.05125e+00 -2.13299e+00  6.04649e+00
       H  4.29911e+00 -2.03473e+00  4.29875e+00
       H  4.11012e+00 -2.46731e-01  6.58918e+00
       O  2.03885e-01  4.73526e+00 -1.30806e+01
       H -1.50438e+00  4.00475e+00 -1.40870e+01
       H  1.53971e+00  3.51816e+00 -1.35325e+01
       O  4.58931e+00  1.21734e+01 -1.32302e+01
       H  3.39395e+00  1.08546e+01 -1.38792e+01
       H  6.08189e+00  1.15124e+01 -1.39089e+01
       O  4.52412e+00  2.18306e+00 -7.00721e-01
       H  4.84188e+00  4.36171e-01 -2.73803e-01
       H  4.07369e+00  2.31697e+00 -2.52034e+00
       O  2.10815e-01  9.46027e+00 -7.84979e-01
       H  5.29867e-01  7.73880e+00 -1.76363e-01
       H  3.51242e-01  9.70712e+00 -2.67508e+00
       O  3.90134e+00  2.56337e+00 -6.19844e+00
       H  2.41206e+00  3.76185e+00 -6.41072e+00
       H  5.47204e+00  3.95219e+00 -6.52761e+00
       O -2.65608e-01  9.95786e+00 -6.36222e+00
       H -1.94106e+00  1.08022e+01 -6.91449e+00
       H  1.30588e+00  1.09252e+01 -6.71144e+00
       O -3.95967e-01  5.23657e+00 -7.73758e+00
       H  2.02646e-02  5.14435e+00 -9.42549e+00
       H -2.63351e-01  7.25999e+00 -6.75632e+00
       O  4.01818e+00  1.26407e+01 -7.70946e+00
       H  4.18871e+00  1.25185e+01 -9.43409e+00
       H  4.07513e+00  1.41574e+01 -7.03853e+00
       O  2.44600e-01  4.77344e+00  6.48928e-01
       H -1.02807e+00  3.53311e+00  2.42313e-01
       H  1.85058e+00  3.67892e+00  5.00722e-01
       O  4.47829e+00  1.20109e+01  7.03142e-01
       H  2.85410e+00  1.10550e+01  2.86412e-01
       H  6.27154e+00  1.12479e+01  4.10691e-01
       O  4.51394e+00  2.31193e+00  1.30612e+01
       H  4.29158e+00  5.00821e-01  1.37865e+01
       H  4.37112e+00  2.06427e+00  1.11356e+01
       O  2.96412e-01  9.46339e+00  1.28933e+01
       H  3.60217e-01  7.72104e+00  1.35740e+01
       H -1.86240e-01  9.38691e+00  1.10162e+01
       O  3.94879e+00  2.62184e+00  7.58959e+00
       H  2.00203e+00  3.15011e+00  7.26704e+00
       H  5.61802e+00  3.22280e+00  7.00221e+00
       O -2.01891e-01  9.85788e+00  7.75570e+00
       H -1.71015e+00  1.08244e+01  7.40102e+00
       H  1.17623e+00  1.09897e+01  7.12235e+00
       O -3.44567e-01  5.23235e+00  6.04827e+00
       H -4.20478e-01  5.20194e+00  4.12631e+00
       H  7.61740e-02  7.01341e+00  6.63957e+00
       O  4.02027e+00  1.25870e+01  6.09834e+00
       H  4.09720e+00  1.31551e+01  4.30332e+00
       H  3.76507e+00  1.43687e+01  6.57631e+00
192
# CELL(abcABC):   16.99620    29.43815    27.67315    90.00000    90.00000    90.00000  Step:          30  Bead:       5 positions{atomic_unit}  cell{atomic_unit}
       O -8.22309e+00 -1.00439e+01 -1.30407e+01
       H  7.29850e+00 -1.09434e+01 -1.36588e+01
       H -6.62362e+00 -1.10785e+01 -1.35528e+01
       O -3.89542e+00 -2.58874e+00 -1.31436e+01
       H -5.38113e+00 -3.81604e+00 -1.37818e+01
       H -2.44213e+00 -3.53819e+00 -1.34286e+01
       O -3.94546e+00 -1.25506e+01 -8.29781e-01
       H -3.90471e+00 -1.47179e+01 -3.09889e-01
       H -4.14681e+00 -1.28072e+01 -2.56053e+00
       O -8.21993e+00 -5.15183e+00 -7.89175e-01
       H -8.43188e+00 -6.95630e+00 -1.18296e-01
       H -8.92631e+00 -5.01474e+00 -2.76249e+00
       O -4.42633e+00 -1.21636e+01 -6.20397e+00
       H -5.83112e+00 -1.11207e+01 -6.48401e+00
       H -2.92577e+00 -1.13268e+01 -6.57699e+00
       O  8.26556e+00 -4.68145e+00 -6.28961e+00
       H  7.12610e+00 -3.31248e+00 -6.54375e+00
       H -7.30351e+00 -3.84559e+00 -6.77384e+00
       O  8.21786e+00 -9.61921e+00 -7.65254e+00
       H  8.15607e+00 -9.34718e+00 -9.46324e+00
       H  7.86246e+00 -7.95797e+00 -7.33045e+00
       O -4.52998e+00 -2.19255e+00 -7.64319e+00
       H -4.27559e+00 -2.36925e+00 -9.55738e+00
       H -4.64788e+00 -1.73480e-01 -7.21999e+00
       O -8.32692e+00 -9.94041e+00  6.77723e-01
       H  6.89462e+00 -1.12156e+01  3.38545e-01
       H -6.91799e+00 -1.07826e+01  7.32269e-02
       O -3.94539e+00 -2.59037e+00  7.94549e-01
       H -5.47696e+00 -3.68887e+00  4.29199e-01
       H -2.49309e+00 -3.82655e+00  3.68588e-01
       O -3.94466e+00 -1.25669e+01  1.31142e+01
       H -4.29930e+00 -1.43268e+01  1.35268e+01
       H -4.30508e+00 -1.29010e+01  1.12367e+01
       O -8.15410e+00 -5.23708e+00  1.30016e+01
       H -7.98660e+00 -6.99022e+00  1.34737e+01