192
# CELL(abcABC):   16.99620    29.43815    27.67315    90.00000    90.00000    90.00000  Step:           0  Bead:      23 velocities{atomic_unit}  cell{atomic_unit}
       O -7.72993e-04 -1.06813e-03  1.09080e-03
       H -2.01904e-03 -7.39518e-04 -1.71306e-03
       H  5.74855e-03 -5.70106e-03 -1.25468e-03
       O  2.43571e-04  1.72861e-03 -5.96087e-04
       H -2.55093e-03 -2.34708e-03 -2.58432e-03
       H  1.05046e-03 -1.30955e-03 -7.70255e-04
       O  1.56691e-03  1.87840e-04 -1.37732e-03
       H  6.04261e-04  5.64044e-05 -1.51153e-03
       H -1.95785e-03  1.19767e-03 -6.21635e-03
       O -7.75463e-05 -1.12026e-03 -2.30922e-04
       H  6.04850e-04  3.00204e-03  3.06764e-03
       H -1.40408e-03  1.78429e-04 -1.70695e-03
       O  6.40016e-05  3.99376e-04 -5.36257e-04
       H  4.65297e-03  1.26246e-03 -8.71838e-03
       H  6.75380e-03 -9.04249e-03  1.83673e-03
       O  2.77551e-04  3.32749e-04  2.13147e-04
       H  5.50591e-03 -2.59218e-03 -2.03231e-03
       H  7.55586e-04  3.08895e-03  6.85140e-03
       O  1.62693e-03 -7.48485e-04  7.47552e-04
       H -5.24054e-03  4.67401e-03  2.62902e-03
       H  1.56580e-03  1.35074e-03 -4.76046e-04
       O -4.41220e-04 -1.29682e-03 -1.15755e-03
       H  5.44140e-03  6.00078e-03 -4.70664e-04
       H -4.73746e-03  4.44748e-03 -1.52733e-03
       O  1.14855e-04  1.09212e-03 -4.08653e-04
       H  2.33486e-03 -3.00850e-03 -4.26860e-03
       H  1.93026e-03  1.84921e-04  9.84879e-04
       O  1.18560e-04 -5.90928e-07  1.06907e-03
       H  2.20917e-03 -1.89045e-03  2.74956e-03
       H -2.02823e-03 -2.75594e-03 -1.19747e-03
       O  1.16245e-04 -4.01157e-04 -1.08456e-03
       H -5.85315e-03  2.70389e-03 -2.32689e-04
       H  1.29041e-03 -6.50071e-05  1.92637e-03
       O  5.95376e-05  1.31773e-03 -1.12794e-03
       H -3.87663e-03 -4.22838e-03  9.68870e-03
       H  1.76525e-03 -6.85697e-03  2.01122e-04
       O -4.61072e-04  4.70389e-04 -8.15271e-05
       H -5.85289e-03 -6.22843e-04  3.96482e-03
       H -1.46129e-03  1.21216e-03  2.47666e-03
       O  5.91583e-04  1.22957e-03  1.23307e-03
       H -1.71204e-03  1.18705e-03 -2.04041e-03
       H  7.29617e-05  1.85484e-03 -1.96251e-03
       O -4.99528e-04  1.28009e-04  1.08094e-03
       H  1.06815e-03  4.41656e-03  2.07309e-03
       H  6.80241e-03 -5.56978e-04  4.20029e-03
       O -8.26597e-04  2.97431e-04 -1.08254e-03
       H  1.50780e-04  4.37984e-03  6.55883e-03
       H -5.84767e-03  1.52941e-03  5.05911e-03
       O -1.80032e-04  1.05988e-04  3.53228e-04
       H -4.67950e-03  1.66038e-03  3.85727e-03
       H  7.21471e-03 -7.60596e-03 -7.23434e-03
       O -2.22158e-03  1.05314e-03  8.23053e-04
       H -4.37991e-03  4.65794e-03  1.11657e-03
       H -4.20505e-03  6.38026e-03  3.56342e-03
       O  1.22450e-03 -1.65553e-03 -3.32332e-04
       H -5.30369e-03 -4.62924e-03  1.79933e-03
       H -3.90071e-03 -2.41340e-03 -3.89105e-05
       O -6.66026e-04 -8.83989e-04 -7.28103e-04
       H -5.20718e-03  5.07245e-04 -1.83680e-03
       H -3.67160e-03  9.32074e-03 -2.87558e-03
       O -1.72319e-03  8.01251e-04  1.31957e-04
       H -7.80822e-04  2.63280e-03 -1.76342e-03
       H  5.17406e-03 -2.04474e-03  3.70478e-04
       O -9.58448e-04  1.74959e-04 -4.46947e-05
       H  9.02536e-03  1.46367e-03  2.42748e-03
       H  1.68809e-03 -5.34033e-03 -6.13162e-03
       O  3.86924e-04 -1.34505e-03 -1.56313e-03
       H  4.07618e-03 -9.72848e-04  2.30238e-04
       H -2.04491e-03 -3.40576e-04  3.97483e-03
       O  8.55536e-04  9.40608e-04 -1.64141e-03
       H -2.23577e-03 -3.35040e-03 -6.17360e-03
       H  1.03497e-04 -1.62775e-04  3.18501e-03
       O -1.85498e-04 -6.15112e-04  7.60073e-05
       H  7.14882e-04 -1.13099e-03  3.64728e-03
       H -1.63754e-03 -5.06639e-03  1.84023e-03
       O  2.03556e-05 -4.04177e-04 -1.64701e-03
       H  1.61589e-03 -1.03742e-02 -3.41079e-03
       H -5.53956e-03 -2.80014e-03  1.94716e-03
       O -6.49494e-04  6.28634e-04 -1.52117e-03
       H -3.99602e-03  8.69519e-03 -6.08585e-03
       H -2.47591e-03  4.70901e-03 -9.18757e-05
       O  4.09476e-04 -1.19187e-04  1.20105e-03
       H -5.05326e-03  4.09361e-03  3.44290e-03
       H -1.32977e-03 -2.59950e-03 -3.54770e-03
       O  6.78879e-04  5.16160e-05  8.94883e-04
       H -3.97718e-03 -7.21517e-03  4.62790e-03
       H  1.81843e-03  3.77464e-03  2.05835e-03
       O  5.55255e-04  1.46050e-05 -1.72699e-05
       H  3.11781e-03 -4.32892e-03 -6.41686e-04
       H -4.12200e-03  7.75815e-03 -8.33568e-04
       O -7.54098e-04 -5.45645e-04  1.03074e-03
       H -4.48411e-03 -5.46915e-03 -7.93649e-03
       H  1.03824e-03 -1.34963e-03 -4.88935e-03
       O  9.02755e-04 -6.75031e-04 -8.88763e-04
       H -5.18888e-04 -2.72111e-03 -1.90798e-04
       H -5.89205e-05  3.37587e-03  3.22190e-03
       O -2.52215e-04  1.74918e-03 -1.57110e-03
       H -4.50217e-03  1.37014e-03  8.13514e-04
       H -1.40415e-03  2.83313e-03  6.98376e-03
       O -3.16638e-03 -7.78029e-04 -6.29920e-05
       H  3.20727e-03  2.57814e-03 -5.40833e-03
       H -3.06201e-03  6.06428e-03 -2.87507e-03
       O -9.54254e-04 -6.82131e-04  1.67928e-04
       H -1.34776e-03  5.94174e-03 -1.68004e-03
       H -9.48084e-04  3.03281e-03  4.83511e-04
       O  2.27802e-05  4.63625e-05 -1.14985e-03
       H -2.30798e-03 -2.38490e-03  1.18306e-03
       H -8.96268e-04 -1.68988e-03  2.13393e-04
       O -9.71068e-04  3.31432e-04 -1.30703e-04
       H -3.62588e-03  6.46068e-03 -4.18665e-03
       H -2.67584e-03 -9.58113e-04  4.80879e-04
       O  1.14466e-04  3.89268e-04  1.73553e-03
       H -2.23947e-03 -4.28851e-03  5.63499e-03
       H -3.45415e-04  5.33215e-03 -3.77485e-03
       O  5.40791e-04 -6.43645e-04  2.56890e-04
       H  1.43720e-04  9.47754e-03  6.59291e-04
       H  6.70321e-03  3.34004e-04  1.11301e-03
       O  1.12694e-03  4.10511e-04  4.95365e-04
       H -6.68861e-03 -1.58657e-03 -5.41708e-03
       H  6.06666e-03 -2.18826e-03 -2.25925e-03
       O  1.37972e-03  3.43082e-05 -1.08735e-03
       H -2.04841e-03  4.19616e-04 -5.55692e-05
       H  3.88204e-03  6.46452e-03 -3.18745e-03
       O -4.61044e-04  1.23264e-03 -8.67009e-04
       H  4.80106e-03 -2.43547e-05 -2.77355e-03
       H  1.75724e-03 -3.39378e-03 -3.53109e-03
       O  2.61786e-04 -5.23653e-04  5.06753e-04
       H -9.79159e-06 -2.57052e-03 -2.50582e-03
       H -1.74563e-03 -1.58773e-03  4.07550e-03
       O  1.46797e-03 -1.67884e-04  4.45752e-04
       H  2.57681e-03  4.05535e-03  3.15717e-03
       H  1.58409e-03 -6.63355e-03  2.52709e-03
       O -1.72277e-03  5.40869e-04  6.64362e-05
       H -2.17119e-03  2.72128e-03 -2.30557e-03
       H  2.39885e-03  1.88498e-03 -1.75044e-03
       O  6.26819e-04 -8.36582e-04  1.13197e-03
       H  9.67760e-04  5.61892e-03 -3.20137e-04
       H  3.22536e-03 -5.41782e-03  3.65738e-03
       O -5.49876e-04  1.66173e-04 -5.54222e-04
       H -8.46257e-03 -1.32234e-03  2.63510e-03
       H -1.88217e-03  3.07023e-03 -3.21990e-03
       O -8.39449e-04 -1.05983e-04 -4.04278e-04
       H  1.94000e-03 -8.55293e-04 -1.72008e-03
       H -5.19485e-04  6.75498e-04  7.67379e-04
       O -2.24872e-04 -1.27242e-03  1.75297e-04
       H  2.31487e-03  6.85761e-03 -7.84592e-03
       H -4.58489e-03  1.65507e-03 -3.40824e-03
       O -4.35307e-04 -7.83599e-04  4.95614e-04
       H -2.14733e-04  3.77247e-04  1.45762e-03
       H  9.35576e-03  4.23513e-04 -4.17398e-03
       O -8.20095e-04  6.75233e-04 -1.00304e-03
       H  3.08575e-03 -1.23062e-03  2.91205e-03
       H  1.52228e-03  2.60232e-03  2.86261e-03
       O -2.30214e-04  1.50250e-03  4.45891e-04
       H  3.33909e-03  1.20275e-03 -4.72614e-03
       H -1.45007e-03  4.76186e-04 -5.16997e-03
       O -7.73582e-04 -9.35440e-04 -1.07995e-04
       H  3.29598e-04 -2.90744e-03 -5.35605e-03
       H  2.81670e-03  3.01549e-03 -1.43766e-03
       O  3.61428e-04  1.21319e-03  4.05084e-04
       H  1.75184e-03  1.26652e-03  3.40997e-03
       H -9.67899e-03  3.92894e-04  3.70042e-04
       O -6.85179e-04 -2.25156e-04  1.28125e-03
       H  3.87085e-03  8.10691e-03 -2.46425e-05
       H  6.03785e-04  3.40814e-03  2.40310e-03
       O -8.35798e-04  7.23347e-04  9.14452e-04
       H  5.75860e-03  2.66128e-04  3.32551e-03
       H  1.68298e-03 -1.98537e-03  1.34429e-04
       O -1.17571e-03 -5.86422e-04 -1.49812e-04
       H -2.96485e-03  2.31194e-03  1.84901e-03
       H  2.58615e-04 -3.42384e-03 -1.93749e-03
       O  6.74986e-04  8.55401e-04 -3.62991e-04
       H -3.36195e-03  3.86473e-03 -4.84738e-03
       H -2.05431e-03 -1.52956e-03  3.00708e-03
       O  1.58127e-03 -1.01790e-03  7.54375e-04
       H -1.35076e-03 -4.68310e-03 -2.23500e-03
       H  7.92367e-04  2.28283e-03  1.33852e-03
       O  5.00269e-04  1.10106e-03  1.70044e-04
       H  9.10389e-03  1.14583e-03  4.12126e-03
       H  4.58047e-03  4.85684e-03  5.94301e-03
       O  8.04707e-04  1.34442e-03  7.26532e-04
       H  2.47108e-03  4.47024e-03  1.37017e-03
       H -5.51004e-04  4.39945e-03 -4.08343e-03
       O -2.39381e-04  5.19770e-05  5.98586e-05
       H  3.77635e-04 -1.42002e-03 -1.40947e-03
       H -2.92143e-03  2.87987e-03 -5.81480e-03
       O  1.16455e-03 -8.32671e-04  6.61275e-04
       H  1.55015e-03  9.69482e-04 -5.12836e-04
       H -1.86788e-03 -2.88180e-03 -8.73779e-03
       O -3.76008e-04 -3.66626e-04 -3.52191e-04
       H -1.03058e-03  2.11412e-03 -7.03852e-03
       H -5.39287e-03  1.43440e-03 -3.11024e-03
192
# CELL(abcABC):   16.99620    29.43815    27.67315    90.00000    90.00000    90.00000  Step:          10  Bead:      23 velocities{atomic_unit}  cell{atomic_unit}
       O  3.41694e-04 -1.01924e-03  1.59041e-03
       H -3.71254e-03  2.67412e-03 -3.95525e-03
       H  1.97996e-03  5.31417e-03  1.11554e-03
       O  9.56344e-04 -4.15479e-04  1.63632e-03
       H -4.70866e-03 -4.59127e-03  2.12629e-03
       H  1.63691e-03 -2.61085e-03  6.25313e-04
       O -2.11293e-05 -1.40806e-03  4.82521e-05
       H  3.34615e-03 -5.07852e-03  3.89439e-03
       H  6.42099e-03 -3.86514e-03  1.64989e-03
       O -2.30578e-04 -1.19110e-03  1.02649e-03
       H  3.89299e-03  3.89007e-03  4.18020e-03
       H  1.97287e-04  1.41544e-03  1.85961e-03
       O -5.00945e-05 -1.14530e-03  7.21783e-04
       H  5.51130e-03 -6.30191e-04 -4.54858e-03
       H -4.29126e-04 -4.87159e-03  1.14564e-03
       O  6.03533e-04  1.42636e-03 -1.24004e-03
       H -2.06458e-03 -2.57783e-03  5.74815e-03
       H  7.82373e-04  7.45798e-04 -4.53548e-03
       O  5.48443e-04 -1.17039e-03  2.85455e-04
       H -1.07657e-03  2.77886e-03 -5.59603e-03
       H  9.34388e-04 -9.76691e-04  1.88975e-03
       O  5.83214e-04 -4.07701e-04  5.13536e-05
       H -2.53900e-03  4.32036e-03  2.97258e-04
       H  2.24365e-04 -2.01541e-03  1.27079e-03
       O -1.09056e-04  1.69443e-03 -7.05129e-04
       H -2.04828e-03 -5.59382e-03 -6.24798e-04
       H  2.18674e-03  4.92898e-03 -5.66426e-03
       O  2.00169e-03  1.15648e-03 -9.92626e-04
       H  2.62087e-03 -6.57118e-05 -6.08817e-05
       H  1.96117e-03 -1.38592e-03  2.10870e-03
       O -2.06361e-05 -5.75254e-04 -9.60878e-04
       H -4.24874e-03 -1.64629e-03  1.91989e-03
       H -2.10558e-03 -4.51910e-04 -1.24514e-03
       O -1.38872e-03  4.87614e-04  2.47731e-06
       H  2.98231e-03 -2.21617e-03 -1.09228e-03
       H -5.11775e-04 -2.66433e-03 -3.97659e-03
       O  5.33137e-04 -2.22060e-04  2.74954e-04
       H -2.94805e-03  2.03695e-03 -2.31257e-03
       H -4.19395e-03 -6.37164e-03  1.65810e-03
       O  1.62493e-04  7.88952e-04 -1.58899e-03
       H -8.86272e-05  2.84982e-03 -7.93723e-04
       H -2.34622e-03 -8.97596e-04 -5.60737e-04
       O -3.56925e-04 -3.48760e-05  9.21926e-04
       H -1.83756e-03  6.10584e-04  1.56511e-03
       H  3.07327e-03 -2.87115e-03  2.43569e-05
       O  1.36269e-03  1.24116e-03 -7.09427e-04
       H  2.10021e-03 -1.37327e-03  7.35861e-04
       H -4.93592e-03 -2.59274e-03 -7.27929e-03
       O  4.32573e-04 -8.98903e-05  2.96475e-04
       H  6.69231e-04  2.64445e-04 -3.88570e-04
       H -3.07253e-03 -4.97305e-03 -2.87313e-03
       O -7.45016e-04  1.42523e-03  7.45849e-04
       H  1.62158e-03  8.74389e-03 -4.34287e-06
       H  5.75684e-03  8.17421e-04  2.46092e-03
       O  1.39763e-04  1.73929e-03 -3.69258e-04
       H -1.10699e-03  2.50988e-03 -1.23462e-03
       H -3.40479e-03  3.17511e-03  9.70697e-04
       O -1.72607e-04  3.57838e-04 -7.13894e-04
       H -9.96950e-04  4.65948e-03  8.13908e-04
       H -1.17730e-03 -5.01144e-03  2.36067e-03
       O -3.86203e-04  1.26491e-03  5.06687e-04
       H  1.98210e-03  1.95978e-03 -6.67983e-03
       H -2.01114e-03  7.16451e-03  6.75262e-03
       O  2.85450e-04 -9.91531e-04 -7.50479e-04
       H  8.76626e-04 -6.06325e-03  4.42836e-04
       H  4.49809e-04  3.78813e-03 -1.88808e-03
       O  3.07977e-04  2.54782e-04  1.21674e-03
       H  1.04060e-03  3.95261e-03  3.49301e-03
       H  1.61758e-03 -2.96709e-03  4.94025e-03
       O  2.54982e-04  1.11585e-03  1.42116e-03
       H  3.88534e-03 -3.00732e-03  2.02125e-03
       H -3.44771e-03  3.63540e-03 -1.65771e-03
       O  8.90001e-04 -7.84863e-04  4.45085e-04
       H -3.57215e-03 -2.90073e-03  2.26484e-03
       H -5.30829e-03 -2.45583e-03  2.04031e-03
       O  1.92969e-04 -5.81175e-04 -5.43119e-04
       H  6.59500e-04  3.15580e-03  3.44750e-03
       H -8.82134e-04  2.95621e-03  2.65911e-03
       O -1.03882e-03 -8.06499e-04 -6.20997e-04
       H -2.66564e-03 -6.64794e-03 -1.16584e-03
       H -8.40674e-03 -7.83973e-03  2.77874e-03
       O  2.06626e-04 -9.66014e-05 -6.01577e-04
       H -1.20883e-03  3.00758e-03  2.57806e-04
       H  4.43929e-03 -1.43316e-03 -4.07767e-03
       O -1.18621e-03 -2.48167e-04 -9.44737e-05
       H -1.33545e-03 -1.07958e-03  6.24809e-03
       H  4.73797e-03 -1.20667e-03  5.04362e-04
       O -2.15249e-03  1.03346e-03  2.79589e-04
       H -4.75431e-03  3.19767e-03 -7.06905e-04
       H -9.41700e-04  5.56421e-03 -1.18698e-03
       O -8.83993e-04 -1.28211e-03 -3.49090e-04
       H -3.09411e-03  3.18771e-03  1.41244e-03
       H -1.82669e-03  1.22931e-03  3.94507e-03
       O -1.32217e-03 -7.60800e-04 -5.25955e-04
       H -5.16880e-04  1.04315e-03  2.54473e-04
       H  2.76316e-03 -5.63402e-03  2.56343e-03
       O -1.36152e-03  1.87610e-03 -8.01196e-04
       H -2.02174e-03 -3.89361e-03 -2.23802e-03
       H -2.36630e-03 -4.20472e-03 -3.39112e-03
       O  8.24206e-04 -5.55323e-04 -1.78095e-03
       H  5.45545e-03  1.41918e-03 -1.62465e-03
       H  2.45512e-03 -5.19002e-04 -4.67963e-04
       O -1.14430e-03 -6.75427e-05 -4.70755e-04
       H  5.07606e-04  1.79071e-03 -2.92024e-03
       H -3.10312e-04  4.03334e-03 -5.28853e-03
       O  1.26555e-03  8.37924e-04 -2.20593e-04
       H -1.71812e-03  3.37023e-04  8.41482e-04
       H -2.80589e-03 -7.21396e-04  1.06010e-03
       O  1.68199e-03 -8.69011e-04 -8.91096e-04
       H  8.57858e-04 -7.94606e-04  5.08628e-03
       H  3.49665e-03  3.65362e-03  2.41495e-03
       O  6.58265e-04  1.81889e-04 -9.89364e-04
       H -8.22045e-03  1.21181e-03 -8.63119e-05
       H  6.83277e-03 -1.90010e-03  2.58712e-03
       O  1.78196e-03  1.70650e-03 -5.82988e-04
       H -8.52333e-03 -8.89269e-04 -4.16484e-03
       H  1.06412e-03 -5.01429e-04 -2.26495e-03
       O -4.57034e-04 -2.01663e-03  2.52402e-04
       H  2.95616e-04  1.55370e-03 -7.24748e-04
       H -4.11112e-04  6.35645e-03  3.56645e-03
       O  1.65188e-03  1.02879e-03 -1.67590e-03
       H -2.72337e-04  4.57381e-04 -6.50371e-03
       H -1.18172e-03  4.08498e-03  1.13865e-03
       O -1.27893e-03 -1.08257e-03 -7.51780e-04
       H  3.39078e-03  1.89962e-03 -4.91955e-03
       H  1.27624e-03 -3.13117e-03  2.56820e-03
       O  1.84424e-04 -5.36107e-04 -3.18346e-05
       H  5.70167e-04 -1.05595e-03  4.82892e-03
       H  4.21637e-04 -2.23238e-03 -2.93924e-04
       O  2.51083e-04 -5.06685e-04  2.42977e-04
       H -1.53500e-03  8.09267e-05 -3.05758e-04
       H  1.51759e-03 -2.03858e-03 -1.24696e-03
       O  3.30287e-05 -2.57190e-03  3.99340e-04
       H  8.72451e-03  3.78137e-03 -1.63928e-03
       H  7.68183e-03  1.25015e-03  1.02884e-04
       O -1.73472e-04  1.02285e-03 -2.08736e-04
       H  1.81768e-03 -3.80701e-04 -6.19430e-03
       H  2.30245e-03 -2.29250e-03 -2.52000e-05
       O  1.65922e-05  2.15484e-04  1.18647e-03
       H -2.58742e-03 -2.82870e-03  4.54584e-03
       H  4.77042e-03  2.08191e-03 -3.77327e-03
       O  1.15028e-03  5.23539e-06 -1.50176e-04
       H -1.62719e-03 -3.56931e-03  4.43142e-03
       H -5.73770e-03  4.42815e-03  2.31509e-03
       O  5.51733e-04 -2.03438e-05  1.86942e-04
       H  1.29986e-04  6.09937e-03 -3.19161e-03
       H -6.29933e-04  6.93823e-05  1.49630e-03
       O  9.05639e-04 -3.50335e-04 -1.38847e-03
       H  4.36288e-03 -5.95953e-04  1.95790e-03
       H  2.62630e-03  1.63874e-03  1.76871e-03
       O  1.69200e-03 -5.21805e-04  1.33628e-03
       H  2.13688e-03  1.77303e-03  2.92054e-03
       H -1.58999e-03 -1.32471e-03  5.25643e-03
       O -1.65939e-03 -3.00182e-04  9.92931e-04
       H  3.56906e-03  2.29492e-03 -1.76033e-03
       H  7.61743e-04  8.61086e-04 -3.28443e-03
       O  3.44590e-04 -4.64618e-04  1.39574e-04
       H -1.29022e-04  4.13633e-03  5.17905e-04
       H  3.04312e-03 -3.62488e-03  1.87889e-03
       O  4.58778e-05  3.54951e-04  1.65891e-03
       H -3.56438e-04 -5.39301e-03  6.11311e-03
       H -2.64307e-03 -4.82729e-04 -1.61041e-03
       O -8.57312e-04  2.24123e-03  8.48726e-04
       H -3.03833e-03 -4.93581e-03  1.05735e-04
       H  7.35573e-04  4.32865e-03 -2.14800e-03
       O  8.96816e-04  5.12285e-04 -9.40491e-04
       H  5.98395e-03  5.30678e-03  3.53533e-03
       H  1.76160e-03 -2.53044e-03  4.87308e-04
       O -4.57632e-04 -7.26062e-04  5.32639e-05
       H  4.32076e-03  4.31662e-03  2.03030e-03
       H -2.24614e-04 -4.00314e-03  1.16103e-02
       O  5.58016e-04 -1.22526e-03  5.34807e-04
       H -6.40416e-03  3.31521e-03  2.16845e-03
       H -1.27440e-03 -8.78756e-04 -4.96439e-03
       O -4.11316e-04  7.31270e-04 -4.00912e-04
       H  3.76474e-03 -4.58322e-05  9.11593e-04
       H -4.01035e-03  4.66254e-03  4.70217e-03
       O  9.13424e-04 -9.10817e-04  8.84436e-04
       H  7.61858e-03 -2.71917e-03  3.57211e-03
       H  5.39877e-03  5.95114e-03 -2.14241e-03
       O -1.28468e-03 -3.92179e-04  3.70555e-04
       H  3.45469e-03  1.18015e-03 -4.64676e-05
       H -4.27728e-03  4.07701e-04 -3.07682e-04
       O -1.28171e-03 -8.10796e-05  6.90175e-04
       H  2.49829e-03 -1.24161e-03  4.55330e-03
       H  1.78229e-03  4.78711e-03  2.93823e-03
       O -4.28424e-04  1.14430e-03 -8.13172e-05
       H  2.33116e-03  3.59351e-03  2.19319e-03
       H -8.58942e-03  4.79245e-04  3.52386e-03
       O  5.90561e-05  6.87465e-05 -1.89015e-04
       H  2.51725e-03 -1.01402e-03 -2.13437e-03
       H -1.77803e-03  1.72814e-03  2.23655e-03
192
# CELL(abcABC):   16.99620    29.43815    27.67315    90.00000    90.00000    90.00000  Step:          20  Bead:      23 velocities{atomic_unit}  cell{atomic_unit}
       O -1.08588e-03 -5.98512e-04  6.44676e-04
       H -9.40752e-04  1.19190e-03  3.52210e-03
       H -1.61458e-03  2.52754e-03 -1.63272e-03
       O  4.17232e-04 -6.91463e-04 -1.99966e-03
       H -3.64356e-04 -1.77031e-03 -1.76942e-03
       H  5.18331e-04  3.97287e-03 -6.93401e-03
       O  1.14294e-03 -7.37659e-04  7.32574e-04
       H  1.88142e-03 -3.32944e-03 -1.55696e-03
       H -4.19702e-03 -1.31600e-03  3.61145e-03
       O -2.26057e-04  4.41985e-04  1.74075e-03
       H -8.83661e-03  8.52692e-04 -1.84690e-03
       H -4.93499e-03 -4.27337e-04  1.55589e-03
       O -8.38819e-04 -1.62804e-03  1.60386e-03
       H -1.48515e-03 -3.01836e-03 -3.16770e-03
       H -8.36612e-04  2.03366e-03  1.46263e-03
       O  2.15114e-04  1.00942e-03 -1.26219e-03
       H  2.45215e-03  4.27534e-03 -1.88905e-03
       H -6.72261e-03  3.90822e-03 -5.53507e-03
       O  1.41880e-04  1.61994e-03 -5.71327e-04
       H  2.97523e-03 -5.93139e-04  6.61847e-04
       H -6.32256e-03 -1.75286e-03  8.10800e-03
       O  1.05229e-03 -6.60884e-04 -2.01565e-04
       H  7.76962e-03 -5.09876e-03  4.39621e-03
       H  6.49347e-03 -5.35322e-03 -8.52008e-04
       O -1.10987e-03 -5.97148e-04  1.22221e-03
       H  7.87035e-04 -3.56167e-03 -1.06717e-03
       H -1.41232e-03 -1.71437e-03 -4.61012e-03
       O  3.11150e-04  2.03266e-04  8.05625e-04
       H  1.35519e-02 -2.69514e-03  8.59632e-03
       H  1.16076e-03 -1.96408e-03  1.81190e-03
       O -1.05652e-03 -6.30702e-04 -6.40293e-04
       H  9.07227e-04 -9.84996e-04  2.23438e-03
       H -8.02365e-05  2.21060e-04  7.93400e-04
       O -1.36558e-03 -3.10277e-04  5.27746e-05
       H -3.43579e-03  5.15163e-03  5.19086e-04
       H  5.90840e-03  3.03757e-04 -2.25541e-03
       O  2.21199e-04 -4.13957e-04 -3.85316e-04
       H  7.95657e-03  4.46334e-03  3.53706e-03
       H -2.27570e-03  4.98511e-03  1.15138e-03
       O  2.86429e-04 -1.74882e-03  5.54550e-04
       H  2.39275e-03  1.23762e-03  3.64806e-03
       H -6.55446e-04  2.16811e-03 -1.61324e-03
       O -7.03994e-05 -1.09568e-03 -1.39937e-03
       H  2.69923e-03  2.85011e-04  5.89288e-03
       H  3.21537e-03 -3.69592e-03  7.31380e-06
       O -3.20773e-04 -1.43925e-03 -1.16352e-03
       H -5.51439e-04 -3.50369e-04 -9.10976e-03
       H  2.03667e-03  5.25206e-03  5.03361e-03
       O  7.74835e-04 -5.75263e-04 -1.22443e-03
       H -7.42930e-03 -2.58633e-03  3.64877e-03
       H -5.64996e-03 -4.22842e-04 -2.89109e-03
       O -3.61496e-04  1.91453e-03  9.43626e-05
       H -7.52422e-03 -6.94388e-03  1.86450e-03
       H -1.49453e-04  2.02615e-03 -8.74621e-03
       O  6.64767e-04  1.73053e-03 -3.34663e-04
       H  3.40070e-03  4.25350e-04 -1.95319e-03
       H  1.68242e-03 -8.77563e-04  3.14362e-04
       O  8.14962e-04  8.41012e-04  8.01557e-04
       H -6.07057e-04  5.11650e-03  5.40556e-03
       H -5.02070e-03 -2.04012e-03  3.64127e-03
       O -1.14759e-03  1.15620e-03  6.13188e-04
       H  8.20208e-04 -7.09307e-03  3.80635e-03
       H  4.03997e-03  6.22292e-03 -2.10180e-03
       O  4.03185e-04  6.92827e-04  1.11678e-04
       H -7.93253e-03  2.46385e-04 -7.03710e-04
       H -6.28484e-03 -4.10432e-03  2.10772e-03
       O  2.20773e-04  7.79546e-04 -4.96877e-04
       H -1.67627e-03  9.81545e-04 -2.24433e-03
       H  1.14997e-03 -4.77420e-04  3.90950e-03
       O  1.76775e-03 -1.84255e-05 -5.06163e-04
       H -6.31256e-03 -1.41083e-03  2.01121e-03
       H -5.28536e-03 -5.68704e-03  3.37291e-05
       O  8.12293e-05 -4.15621e-04 -8.27172e-05
       H -6.04442e-03  1.51707e-03 -8.78563e-04
       H  6.20555e-03 -6.77131e-03 -1.86949e-04
       O  3.52095e-04 -7.26038e-04 -9.83919e-04
       H  5.18739e-03 -1.32201e-04  2.54859e-03
       H  3.06731e-03  2.13805e-03 -2.20022e-03
       O -1.97033e-04 -3.31130e-04  8.26991e-05
       H  1.74871e-03 -8.31491e-03 -6.77731e-04
       H -1.30602e-03  4.06055e-03 -2.02081e-03
       O  4.57016e-04  1.08260e-03  1.33263e-03
       H -4.85044e-03 -3.62538e-03 -7.30280e-03
       H -6.42245e-03  5.63944e-03  6.21606e-04
       O  2.93269e-04 -2.89887e-04 -1.00255e-03
       H -8.68433e-03  2.22542e-03  1.82269e-03
       H -1.20545e-03  2.76079e-03 -2.14077e-03
       O -1.32190e-03  7.65470e-04 -7.05626e-04
       H -8.01192e-04  3.98013e-03 -4.64557e-03
       H -4.76033e-03 -8.94883e-04  1.67726e-03
       O -4.03513e-04  1.29645e-03 -3.81989e-05
       H  2.20683e-03 -2.77427e-03 -5.30559e-04
       H  4.42770e-03 -2.57341e-03  1.88881e-03
       O -3.48335e-04 -6.46293e-04  8.07221e-04
       H -2.13701e-03 -1.22620e-03 -1.87209e-03
       H -8.92057e-04 -2.11687e-03 -8.31023e-04
       O -1.18159e-03  2.26426e-03  1.41334e-03
       H -6.57804e-03  2.26755e-03  5.90976e-03
       H -6.61117e-03  3.59144e-03  9.64903e-03
       O  6.38629e-05 -3.27294e-05 -7.44309e-04
       H  2.01733e-03 -5.35777e-03 -5.01057e-03
       H  1.28331e-03  5.01298e-03 -1.41488e-04
       O  8.67791e-04 -1.29794e-03  4.85749e-04
       H -3.96430e-03 -7.04485e-03 -2.15379e-03
       H  5.30962e-03 -1.66666e-03 -4.14624e-03
       O  5.93656e-04 -2.44676e-04 -7.03047e-04
       H  4.34036e-03  5.73509e-03 -5.52157e-03
       H -2.04499e-03  6.40166e-04 -2.19819e-03
       O -9.56823e-04 -5.35979e-04  2.16543e-05
       H -1.43749e-03 -4.14597e-07  5.60337e-03
       H -1.86139e-03  2.30395e-03  5.06938e-03
       O -2.03417e-03  7.66919e-04  6.14999e-04
       H -3.04907e-03  3.01783e-03 -2.89948e-04
       H -2.12539e-03  9.85726e-04  2.62242e-03
       O -6.66327e-04 -5.00233e-04  5.34313e-04
       H  4.07180e-04 -4.56557e-03 -2.72152e-03
       H  6.08470e-04 -2.85007e-03  5.60793e-03
       O  9.96580e-04  1.60764e-03 -2.78266e-04
       H  3.70396e-04  1.37121e-05 -1.73992e-04
       H  4.34995e-03  3.92755e-06 -3.48847e-03
       O -1.61465e-03  3.58330e-05  2.52446e-04
       H -1.76126e-03  3.01131e-03  7.99615e-03
       H  1.35904e-03 -3.68123e-03  2.43574e-04
       O  6.40675e-04 -7.94289e-05 -2.57683e-03
       H -4.92475e-04  4.81497e-03  6.21405e-03
       H  4.29114e-03  1.79204e-03 -2.42271e-03
       O  4.77227e-04 -9.52115e-04 -1.64990e-03
       H  1.49305e-03 -1.75154e-04  1.10868e-03
       H -4.45158e-04  2.94481e-03 -2.47046e-03
       O  1.33801e-04 -5.89422e-04 -7.30049e-05
       H -4.10512e-03 -2.31377e-03  1.46169e-03
       H  1.50184e-03  6.77342e-03  3.36892e-03
       O -6.93933e-04  7.64474e-04 -3.04687e-05
       H -3.87257e-03  2.53753e-03 -3.16624e-03
       H -5.34615e-03  4.60547e-04 -2.54902e-03
       O  6.17432e-04 -3.39563e-04  5.94059e-04
       H  1.60977e-03  6.87208e-03  3.69911e-03
       H -8.94936e-03  3.44839e-03  9.80553e-04
       O -5.71183e-04 -6.76377e-04  2.50157e-04
       H  5.49296e-04 -7.51232e-04 -2.46789e-03
       H -2.63445e-03 -4.71853e-04  1.39246e-03
       O -2.03770e-05 -4.68409e-04  4.03793e-04
       H -3.60619e-03 -5.28698e-03 -4.33965e-03
       H -2.38169e-03 -9.10202e-03 -2.29008e-03
       O -1.38635e-04 -6.83253e-04  2.32259e-04
       H  4.26046e-03 -1.45770e-03  1.41093e-03
       H  3.95569e-03  6.01819e-03 -1.58966e-03
       O  2.14386e-04 -1.07659e-03  3.37900e-05
       H -9.07683e-03 -1.25450e-03  4.19881e-03
       H  2.88055e-04 -1.06233e-03  4.60827e-03
       O -6.30485e-04 -2.22945e-03 -1.05510e-04
       H -3.49150e-03  2.36131e-03 -1.23527e-03
       H -1.77549e-03  6.38841e-03 -5.56947e-04
       O -2.96907e-04  8.56638e-04  2.25190e-04
       H  1.80712e-03  2.45744e-03  2.89858e-03
       H -3.70951e-03 -5.91062e-03  3.53627e-03
       O  3.81863e-04  4.03079e-04  8.95278e-04
       H -1.15586e-03 -5.31382e-03  1.73714e-03
       H -1.89255e-04 -5.48856e-03  3.34817e-03
       O  6.96480e-04 -1.85260e-04  7.00514e-04
       H -6.47533e-04 -2.21630e-03 -8.37752e-04
       H  2.91828e-04  2.78160e-03  2.67990e-03
       O -1.69364e-03 -7.07778e-05  3.64107e-04
       H -4.46077e-04 -1.89548e-03 -1.80403e-03
       H -7.96825e-04 -4.90138e-03 -1.88963e-03
       O  5.40237e-05 -9.74271e-04 -4.56183e-04
       H -2.47821e-03  3.46669e-03  1.28883e-03
       H  1.99184e-03  2.35076e-03 -3.14938e-03
       O -4.61550e-04 -1.22865e-03  9.83372e-04
       H  4.61725e-03  6.35383e-04 -2.43321e-03
       H -7.69443e-04 -3.49736e-03  1.08431e-03
       O  1.36345e-03 -5.39548e-04  5.47641e-04
       H  3.02325e-03 -1.09958e-03 -2.42693e-03
       H  4.82156e-03  1.13408e-03  4.63025e-03
       O -2.93967e-05  7.64801e-04 -8.68738e-04
       H -4.72237e-03 -6.54986e-03 -4.55195e-03
       H -1.52077e-03 -4.40272e-03  1.62653e-03
       O -1.18041e-03 -1.52589e-04 -4.98436e-04
       H  3.99185e-03  3.88861e-03 -1.99512e-03
       H -2.25244e-04  1.11448e-03 -1.47444e-03
       O  1.45746e-03 -6.01556e-04  1.80222e-03
       H  1.67021e-03 -2.28037e-03  1.28467e-03
       H  4.79021e-03 -2.99509e-03  1.63039e-03
       O -3.18357e-04 -1.49353e-03  4.44695e-04
       H  5.67577e-03  3.09408e-03  2.86347e-03
       H -2.33710e-04 -1.65616e-03  2.96555e-03
       O  3.14066e-04  4.71308e-04 -2.30338e-04
       H -1.77962e-03  4.50776e-04  9.08141e-04
       H -6.60176e-04  4.70626e-04  1.34416e-03
       O  5.30750e-04 -1.02194e-03 -3.19189e-04
       H  3.53541e-04  4.96814e-03 -2.08812e-03
       H -3.17392e-04 -7.79952e-03  2.79353e-03
192
# CELL(abcABC):   16.99620    29.43815    27.67315    90.00000    90.00000    90.00000  Step:          30  Bead:      23 velocities{atomic_unit}  cell{atomic_unit}
       O  6.43445e-04  2.54956e-04 -6.10493e-04
       H -3.13039e-03 -4.40305e-03  2.49593e-03
       H -2.66641e-03  9.72014e-04 -8.01044e-04
       O  8.40345e-04  1.38856e-03 -3.88621e-05
       H  3.50422e-03 -2.74711e-04  2.75094e-03
       H  5.86196e-04 -1.74449e-03 -1.26587e-03
       O -1.36124e-03 -2.45442e-04  4.36662e-04
       H -6.21562e-04  9.02146e-03 -1.92989e-03
       H  2.86104e-03  3.10045e-03  2.83061e-03
       O  6.07954e-04 -1.36240e-03  2.34403e-04
       H  7.97943e-04  3.24231e-03  8.79856e-03
       H -4.80339e-03 -1.01960e-04 -5.45225e-04
       O -8.87887e-05  1.29677e-03  4.00567e-04
       H  3.05500e-03 -1.13502e-03  6.88133e-04
       H -2.92146e-03 -1.58400e-04  1.14261e-03
       O  2.55277e-04 -1.48906e-04  4.11702e-04
       H -1.14893e-03 -5.57631e-03  1.13614e-03
       H  1.61514e-03  1.81985e-03  4.04045e-03
       O  1.45762e-04  7.86741e-04 -6.30198e-04
       H -4.81149e-03  9.03962e-05  5.85781e-04
       H -3.14619e-03 -8.25450e-03  9.35182e-04
       O  1.40766e-03  2.15602e-04  2.72391e-05
       H  1.82158e-03 -2.39730e-03 -3.13142e-03
       H -6.65260e-03  3.54440e-03  2.69510e-03
       O -1.30820e-03  7.21357e-04  3.06317e-05
       H  4.62450e-03 -6.29688e-03  4.74259e-03
       H -5.24898e-03  2.67402e-03 -2.91371e-03
       O -4.94783e-04 -3.68954e-04  1.11495e-03
       H -5.27184e-03 -2.49661e-03 -7.64239e-04
       H -6.73354e-03 -2.03928e-03 -6.91955e-03
       O  4.41692e-04 -9.12493e-04  7.83699e-04
       H -7.32825e-03 -1.27282e-04  1.13731e-03
       H  1.34773e-03  5.52086e-03 -1.41320e-03
       O -3.25166e-04 -3.53090e-05 -7.14505e-04
       H -5.40213e-03 -3.90330e-03  3.42352e-03