192
# CELL(abcABC):   16.99620    29.43815    27.67315    90.00000    90.00000    90.00000  Step:           0  Bead:      18 positions{atomic_unit}  cell{atomic_unit}
       O -8.21943e+00 -9.93714e+00 -1.31733e+01
       H  7.30975e+00 -1.09659e+01 -1.36333e+01
       H -6.70309e+00 -1.09427e+01 -1.35003e+01
       O -3.97045e+00 -2.57760e+00 -1.31733e+01
       H -5.43740e+00 -3.60640e+00 -1.36335e+01
       H -2.45410e+00 -3.58307e+00 -1.35002e+01
       O -3.95479e+00 -1.25494e+01 -7.82537e-01
       H -3.95303e+00 -1.43463e+01 -2.27998e-01
       H -4.14654e+00 -1.25640e+01 -2.59980e+00
       O -8.20381e+00 -5.18980e+00 -7.82573e-01
       H -8.20206e+00 -6.98662e+00 -2.28079e-01
       H -8.39554e+00 -5.20430e+00 -2.59985e+00
       O -4.52774e+00 -1.21415e+01 -6.25501e+00
       H -6.04401e+00 -1.11359e+01 -6.58198e+00
       H -3.06070e+00 -1.11128e+01 -6.71509e+00
       O  8.21948e+00 -4.78197e+00 -6.25503e+00
       H  6.70316e+00 -3.77646e+00 -6.58191e+00
       H -7.30970e+00 -3.75321e+00 -6.71514e+00
       O  8.20373e+00 -9.52922e+00 -7.70081e+00
       H  8.39566e+00 -9.51468e+00 -9.51806e+00
       H  8.20220e+00 -7.73240e+00 -7.14624e+00
       O -4.54345e+00 -2.16975e+00 -7.70084e+00
       H -4.35162e+00 -2.15526e+00 -9.51812e+00
       H -4.54503e+00 -3.72917e-01 -7.14634e+00
       O -8.21943e+00 -9.93697e+00  6.63195e-01
       H  7.30977e+00 -1.09657e+01  2.03202e-01
       H -6.70308e+00 -1.09425e+01  3.36227e-01
       O -3.97044e+00 -2.57760e+00  6.63173e-01
       H -5.43747e+00 -3.60635e+00  2.03069e-01
       H -2.45410e+00 -3.58312e+00  3.36346e-01
       O -3.95472e+00 -1.25494e+01  1.30540e+01
       H -3.95309e+00 -1.43462e+01  1.36086e+01
       H -4.14653e+00 -1.25640e+01  1.12368e+01
       O -8.20380e+00 -5.18990e+00  1.30541e+01
       H -8.20202e+00 -6.98672e+00  1.36085e+01
       H -8.39553e+00 -5.20434e+00  1.12368e+01
       O -4.52771e+00 -1.21415e+01  7.58159e+00
       H -6.04402e+00 -1.11360e+01  7.25460e+00
       H -3.06070e+00 -1.11128e+01  7.12152e+00
       O  8.21944e+00 -4.78191e+00  7.58149e+00
       H  6.70312e+00 -3.77633e+00  7.25453e+00
       H -7.30974e+00 -3.75322e+00  7.12139e+00
       O  8.20378e+00 -9.52926e+00  6.13582e+00
       H  8.39564e+00 -9.51474e+00  4.31856e+00
       H  8.20221e+00 -7.73246e+00  6.69037e+00
       O -4.54344e+00 -2.16971e+00  6.13568e+00
       H -4.35161e+00 -2.15522e+00  4.31840e+00
       H -4.54506e+00 -3.72896e-01  6.69017e+00
       O -8.21947e+00  4.78210e+00 -1.31734e+01
       H  7.30974e+00  3.75335e+00 -1.36334e+01
       H -6.70314e+00  3.77651e+00 -1.35002e+01
       O -3.97046e+00  1.21415e+01 -1.31733e+01
       H -5.43745e+00  1.11127e+01 -1.36334e+01
       H -2.45410e+00  1.11360e+01 -1.35002e+01
       O -3.95479e+00  2.16971e+00 -7.82462e-01
       H -3.95303e+00  3.72884e-01 -2.27933e-01
       H -4.14646e+00  2.15509e+00 -2.59975e+00
       O -8.20376e+00  9.52923e+00 -7.82499e-01
       H -8.20200e+00  7.73238e+00 -2.27998e-01
       H -8.39546e+00  9.51472e+00 -2.59977e+00
       O -4.52774e+00  2.57749e+00 -6.25512e+00
       H -6.04400e+00  3.58312e+00 -6.58197e+00
       H -3.06066e+00  3.60618e+00 -6.71512e+00
       O  8.21949e+00  9.93715e+00 -6.25509e+00
       H  6.70318e+00  1.09426e+01 -6.58202e+00
       H -7.30970e+00  1.09659e+01 -6.71526e+00
       O  8.20366e+00  5.18988e+00 -7.70077e+00
       H  8.39552e+00  5.20437e+00 -9.51803e+00
       H  8.20217e+00  6.98669e+00 -7.14625e+00
       O -4.54337e+00  1.25494e+01 -7.70088e+00
       H -4.35159e+00  1.25639e+01 -9.51817e+00
       H -4.54500e+00  1.43462e+01 -7.14634e+00
       O -8.21952e+00  4.78190e+00  6.63226e-01
       H  7.30971e+00  3.75313e+00  2.03107e-01
       H -6.70317e+00  3.77635e+00  3.36440e-01
       O -3.97040e+00  1.21415e+01  6.63326e-01
       H -5.43738e+00  1.11127e+01  2.03185e-01
       H -2.45407e+00  1.11360e+01  3.36426e-01
       O -3.95476e+00  2.16964e+00  1.30541e+01
       H -3.95303e+00  3.72832e-01  1.36087e+01
       H -4.14651e+00  2.15510e+00  1.12369e+01
       O -8.20373e+00  9.52937e+00  1.30540e+01
       H -8.20206e+00  7.73252e+00  1.36085e+01
       H -8.39548e+00  9.51483e+00  1.12368e+01
       O -4.52770e+00  2.57756e+00  7.58140e+00
       H -6.04399e+00  3.58315e+00  7.25450e+00
       H -3.06066e+00  3.60630e+00  7.12138e+00
       O  8.21951e+00  9.93714e+00  7.58157e+00
       H  6.70319e+00  1.09427e+01  7.25463e+00
       H -7.30968e+00  1.09658e+01  7.12140e+00
       O  8.20369e+00  5.18993e+00  6.13578e+00
       H  8.39547e+00  5.20441e+00  4.31850e+00
       H  8.20212e+00  6.98674e+00  6.69030e+00
       O -4.54348e+00  1.25494e+01  6.13570e+00
       H -4.35158e+00  1.25639e+01  4.31845e+00
       H -4.54503e+00  1.43462e+01  6.69025e+00
       O  2.78573e-01 -9.93717e+00 -1.31734e+01
       H -1.18842e+00 -1.09659e+01 -1.36336e+01
       H  1.79493e+00 -1.09427e+01 -1.35002e+01
       O  4.52772e+00 -2.57751e+00 -1.31733e+01
       H  3.06068e+00 -3.60627e+00 -1.36334e+01
       H  6.04403e+00 -3.58305e+00 -1.35003e+01
       O  4.54334e+00 -1.25494e+01 -7.82465e-01
       H  4.54513e+00 -1.43463e+01 -2.27989e-01
       H  4.35168e+00 -1.25640e+01 -2.59974e+00
       O  2.94294e-01 -5.18980e+00 -7.82487e-01
       H  2.96032e-01 -6.98663e+00 -2.28053e-01
       H  1.02602e-01 -5.20427e+00 -2.59977e+00
       O  3.97042e+00 -1.21415e+01 -6.25517e+00
       H  2.45414e+00 -1.11359e+01 -6.58198e+00
       H  5.43747e+00 -1.11128e+01 -6.71526e+00
       O -2.78672e-01 -4.78194e+00 -6.25508e+00
       H -1.79498e+00 -3.77636e+00 -6.58199e+00
       H  1.18837e+00 -3.75320e+00 -6.71514e+00
       O -2.94511e-01 -9.52920e+00 -7.70081e+00
       H -1.02600e-01 -9.51466e+00 -9.51806e+00
       H -2.96005e-01 -7.73240e+00 -7.14625e+00
       O  3.95462e+00 -2.16972e+00 -7.70080e+00
       H  4.14654e+00 -2.15521e+00 -9.51804e+00
       H  3.95318e+00 -3.72879e-01 -7.14628e+00
       O  2.78541e-01 -9.93701e+00  6.63104e-01
       H -1.18842e+00 -1.09658e+01  2.03011e-01
       H  1.79493e+00 -1.09425e+01  3.36333e-01
       O  4.52773e+00 -2.57757e+00  6.63187e-01
       H  3.06068e+00 -3.60633e+00  2.03125e-01
       H  6.04402e+00 -3.58308e+00  3.36357e-01
       O  4.54332e+00 -1.25494e+01  1.30541e+01
       H  4.54518e+00 -1.43462e+01  1.36086e+01
       H  4.35169e+00 -1.25640e+01  1.12368e+01
       O  2.94281e-01 -5.18991e+00  1.30541e+01
       H  2.95995e-01 -6.98675e+00  1.36085e+01
       H  1.02570e-01 -5.20435e+00  1.12368e+01
       O  3.97044e+00 -1.21415e+01  7.58145e+00
       H  2.45413e+00 -1.11360e+01  7.25466e+00
       H  5.43745e+00 -1.11128e+01  7.12135e+00
       O -2.78601e-01 -4.78191e+00  7.58148e+00
       H -1.79495e+00 -3.77634e+00  7.25458e+00
       H  1.18839e+00 -3.75323e+00  7.12138e+00
       O -2.94501e-01 -9.52922e+00  6.13582e+00
       H -1.02637e-01 -9.51466e+00  4.31854e+00
       H -2.96013e-01 -7.73241e+00  6.69035e+00
       O  3.95462e+00 -2.16967e+00  6.13570e+00
       H  4.14656e+00 -2.15516e+00  4.31844e+00
       H  3.95315e+00 -3.72836e-01  6.69024e+00
       O  2.78636e-01  4.78206e+00 -1.31735e+01
       H -1.18832e+00  3.75329e+00 -1.36335e+01
       H  1.79499e+00  3.77651e+00 -1.35003e+01
       O  4.52773e+00  1.21415e+01 -1.31733e+01
       H  3.06066e+00  1.11127e+01 -1.36334e+01
       H  6.04403e+00  1.11360e+01 -1.35003e+01
       O  4.54332e+00  2.16970e+00 -7.82499e-01
       H  4.54510e+00  3.72872e-01 -2.27973e-01
       H  4.35161e+00  2.15513e+00 -2.59979e+00
       O  2.94188e-01  9.52923e+00 -7.82517e-01
       H  2.95976e-01  7.73239e+00 -2.28033e-01
       H  1.02486e-01  9.51470e+00 -2.59980e+00
       O  3.97041e+00  2.57752e+00 -6.25508e+00
       H  2.45414e+00  3.58307e+00 -6.58188e+00
       H  5.43747e+00  3.60626e+00 -6.71516e+00
       O -2.78677e-01  9.93714e+00 -6.25506e+00
       H -1.79497e+00  1.09427e+01 -6.58203e+00
       H  1.18838e+00  1.09659e+01 -6.71517e+00
       O -2.94451e-01  5.18990e+00 -7.70074e+00
       H -1.02475e-01  5.20442e+00 -9.51799e+00
       H -2.95971e-01  6.98671e+00 -7.14623e+00
       O  3.95453e+00  1.25494e+01 -7.70088e+00
       H  4.14650e+00  1.25638e+01 -9.51813e+00
       H  3.95314e+00  1.43462e+01 -7.14638e+00
       O  2.78666e-01  4.78190e+00  6.63181e-01
       H -1.18838e+00  3.75314e+00  2.03219e-01
       H  1.79499e+00  3.77637e+00  3.36305e-01
       O  4.52768e+00  1.21415e+01  6.63233e-01
       H  3.06065e+00  1.11127e+01  2.03130e-01
       H  6.04402e+00  1.11359e+01  3.36318e-01
       O  4.54337e+00  2.16963e+00  1.30541e+01
       H  4.54515e+00  3.72778e-01  1.36085e+01
       H  4.35165e+00  2.15511e+00  1.12368e+01
       O  2.94139e-01  9.52935e+00  1.30540e+01
       H  2.96028e-01  7.73252e+00  1.36085e+01
       H  1.02508e-01  9.51480e+00  1.12368e+01
       O  3.97044e+00  2.57752e+00  7.58146e+00
       H  2.45409e+00  3.58312e+00  7.25468e+00
       H  5.43745e+00  3.60627e+00  7.12136e+00
       O -2.78642e-01  9.93713e+00  7.58156e+00
       H -1.79498e+00  1.09426e+01  7.25459e+00
       H  1.18834e+00  1.09658e+01  7.12145e+00
       O -2.94462e-01  5.18993e+00  6.13575e+00
       H -1.02485e-01  5.20444e+00  4.31854e+00
       H -2.95928e-01  6.98677e+00  6.69031e+00
       O  3.95461e+00  1.25493e+01  6.13580e+00
       H  4.14651e+00  1.25638e+01  4.31854e+00
       H  3.95313e+00  1.43462e+01  6.69028e+00
192
# CELL(abcABC):   16.99620    29.43815    27.67315    90.00000    90.00000    90.00000  Step:          10  Bead:      18 positions{atomic_unit}  cell{atomic_unit}
       O -8.17361e+00 -9.93418e+00 -1.31345e+01
       H  7.22113e+00 -1.10073e+01 -1.36176e+01
       H -6.73853e+00 -1.10397e+01 -1.34589e+01
       O -3.98643e+00 -2.59402e+00 -1.31755e+01
       H -5.37568e+00 -3.68136e+00 -1.36888e+01
       H -2.30306e+00 -3.38093e+00 -1.35408e+01
       O -3.95645e+00 -1.25288e+01 -7.67947e-01
       H -4.04253e+00 -1.41997e+01 -3.58763e-01
       H -4.22454e+00 -1.24946e+01 -2.49682e+00
       O -8.19785e+00 -5.18945e+00 -7.91278e-01
       H -8.23349e+00 -6.94880e+00 -2.85236e-01
       H -8.50892e+00 -5.23921e+00 -2.52325e+00
       O -4.53471e+00 -1.21705e+01 -6.25730e+00
       H -6.06520e+00 -1.10883e+01 -6.63982e+00
       H -2.96766e+00 -1.10418e+01 -6.84664e+00
       O  8.24964e+00 -4.79601e+00 -6.28524e+00
       H  6.84393e+00 -3.76357e+00 -6.70694e+00
       H -7.35930e+00 -3.76048e+00 -6.79781e+00
       O  8.25279e+00 -9.49648e+00 -7.67230e+00
       H  8.40816e+00 -9.55519e+00 -9.53197e+00
       H  8.17054e+00 -7.80427e+00 -7.11789e+00
       O -4.52812e+00 -2.16193e+00 -7.67207e+00
       H -4.51749e+00 -2.09997e+00 -9.48763e+00
       H -4.50244e+00 -5.29415e-01 -7.09099e+00
       O -8.17619e+00 -9.91010e+00  6.62575e-01
       H  7.28822e+00 -1.10114e+01  3.52517e-01
       H -6.81234e+00 -1.10097e+01  2.52259e-01
       O -4.01858e+00 -2.57609e+00  6.82834e-01
       H -5.54003e+00 -3.42577e+00  3.18571e-01
       H -2.44709e+00 -3.56133e+00  3.69893e-01
       O -3.91240e+00 -1.25649e+01  1.30633e+01
       H -3.91935e+00 -1.42657e+01  1.35976e+01
       H -4.17961e+00 -1.24768e+01  1.12899e+01
       O -8.21724e+00 -5.17292e+00  1.30521e+01
       H -8.08553e+00 -6.94994e+00  1.36337e+01
       H -8.41913e+00 -4.97455e+00  1.10687e+01
       O -4.51611e+00 -1.21079e+01  7.57173e+00
       H -6.06723e+00 -1.10719e+01  7.20794e+00
       H -3.06263e+00 -1.10185e+01  7.20325e+00
       O  8.19642e+00 -4.76730e+00  7.58020e+00
       H  6.73133e+00 -3.90955e+00  7.05711e+00
       H -7.34945e+00 -3.86970e+00  7.05925e+00
       O  8.20366e+00 -9.55461e+00  6.10755e+00
       H  8.25556e+00 -9.35850e+00  4.34611e+00
       H  8.37887e+00 -7.85481e+00  6.79636e+00
       O -4.59411e+00 -2.13054e+00  6.13057e+00
       H -4.49418e+00 -2.16484e+00  4.31214e+00
       H -4.49291e+00 -2.53819e-01  6.85129e+00
       O -8.18851e+00  4.75460e+00 -1.31912e+01
       H  7.42727e+00  3.75717e+00 -1.35958e+01
       H -6.69371e+00  3.73011e+00 -1.36165e+01
       O -3.95833e+00  1.21278e+01 -1.31450e+01
       H -5.44930e+00  1.12444e+01 -1.36042e+01
       H -2.33460e+00  1.11047e+01 -1.35660e+01
       O -3.95272e+00  2.15636e+00 -7.86502e-01
       H -4.04672e+00  3.64476e-01 -2.50075e-01
       H -4.16337e+00  2.23401e+00 -2.67212e+00
       O -8.18484e+00  9.53744e+00 -8.16369e-01
       H -8.20839e+00  7.79024e+00 -2.15450e-01
       H -8.30228e+00  9.57186e+00 -2.70704e+00
       O -4.55840e+00  2.54131e+00 -6.22718e+00
       H -6.08108e+00  3.63072e+00 -6.65134e+00
       H -2.85455e+00  3.65926e+00 -6.61581e+00
       O  8.21083e+00  9.94844e+00 -6.25942e+00
       H  6.55413e+00  1.09693e+01 -6.33032e+00
       H -7.23011e+00  1.09513e+01 -6.53532e+00
       O  8.20400e+00  5.18704e+00 -7.69783e+00
       H  8.31145e+00  5.10033e+00 -9.51545e+00
       H  8.18264e+00  7.17832e+00 -7.13394e+00
       O -4.54279e+00  1.25248e+01 -7.71243e+00
       H -4.23629e+00  1.25892e+01 -9.45790e+00
       H -4.58060e+00  1.45025e+01 -7.16648e+00
       O -8.23886e+00  4.77769e+00  6.80843e-01
       H  7.46676e+00  3.68330e+00  1.62071e-01
       H -6.70548e+00  3.67612e+00  5.38213e-01
       O -3.98540e+00  1.21400e+01  6.40465e-01
       H -5.62097e+00  1.11316e+01  1.84883e-01
       H -2.28719e+00  1.12441e+01  2.86251e-01
       O -3.93088e+00  2.19636e+00  1.30618e+01
       H -3.85662e+00  4.49140e-01  1.35567e+01
       H -4.06815e+00  2.09769e+00  1.13223e+01
       O -8.16982e+00  9.52864e+00  1.30896e+01
       H -8.22044e+00  7.75356e+00  1.35411e+01
       H -8.37160e+00  9.49619e+00  1.11018e+01
       O -4.49467e+00  2.56927e+00  7.54047e+00
       H -6.02004e+00  3.63637e+00  7.18120e+00
       H -3.04420e+00  3.59337e+00  6.93118e+00
       O  8.22009e+00  9.99653e+00  7.56951e+00
       H  6.83080e+00  1.08941e+01  7.14593e+00
       H -7.24015e+00  1.07893e+01  7.29872e+00
       O  8.22849e+00  5.18961e+00  6.16085e+00
       H  8.53311e+00  5.28972e+00  4.27860e+00
       H  8.25331e+00  6.98104e+00  6.62698e+00
       O -4.55474e+00  1.25316e+01  6.10930e+00
       H -4.32009e+00  1.26163e+01  4.08776e+00
       H -4.46995e+00  1.43053e+01  6.68141e+00
       O  2.90154e-01 -9.95956e+00 -1.31964e+01
       H -1.14867e+00 -1.10593e+01 -1.35642e+01
       H  1.86904e+00 -1.09724e+01 -1.33792e+01
       O  4.54400e+00 -2.57305e+00 -1.31568e+01
       H  3.15481e+00 -3.78833e+00 -1.36127e+01
       H  6.03657e+00 -3.58736e+00 -1.34517e+01
       O  4.52510e+00 -1.25401e+01 -7.95710e-01
       H  4.49445e+00 -1.44137e+01 -3.19058e-01
       H  4.45253e+00 -1.25635e+01 -2.65206e+00
       O  2.93180e-01 -5.18232e+00 -8.03241e-01
       H  2.13501e-01 -7.15171e+00 -4.12392e-01
       H  2.34513e-01 -5.10626e+00 -2.71613e+00
       O  3.95240e+00 -1.21833e+01 -6.24141e+00
       H  2.39967e+00 -1.11277e+01 -6.73707e+00
       H  5.54692e+00 -1.13376e+01 -6.57652e+00
       O -2.93079e-01 -4.77355e+00 -6.27267e+00
       H -1.90478e+00 -3.71283e+00 -6.54205e+00
       H  1.27053e+00 -3.64082e+00 -6.82470e+00
       O -2.94550e-01 -9.51936e+00 -7.68532e+00
       H -1.74708e-01 -9.46642e+00 -9.48968e+00
       H -2.80280e-01 -7.52627e+00 -6.96480e+00
       O  3.94632e+00 -2.17511e+00 -7.69759e+00
       H  4.12137e+00 -2.12678e+00 -9.39842e+00
       H  3.89196e+00 -3.15131e-01 -7.06590e+00
       O  2.57562e-01 -9.93214e+00  6.45982e-01
       H -1.04516e+00 -1.09265e+01  2.77690e-01
       H  1.77872e+00 -1.08490e+01  4.81718e-01
       O  4.47749e+00 -2.57201e+00  6.70065e-01
       H  3.02220e+00 -3.57622e+00  1.82583e-01
       H  6.13489e+00 -3.45963e+00  1.80312e-01
       O  4.53198e+00 -1.25068e+01  1.30468e+01
       H  4.63704e+00 -1.43951e+01  1.36381e+01
       H  4.39100e+00 -1.23529e+01  1.12429e+01
       O  2.73723e-01 -5.15686e+00  1.30333e+01
       H  2.40487e-01 -6.91002e+00  1.39397e+01
       H  1.48721e-01 -5.18043e+00  1.12220e+01
       O  3.91686e+00 -1.21269e+01  7.59929e+00
       H  2.30673e+00 -1.10168e+01  7.31227e+00
       H  5.48320e+00 -1.12111e+01  7.09318e+00
       O -2.63620e-01 -4.81450e+00  7.57076e+00
       H -1.65705e+00 -3.77194e+00  7.23514e+00
       H  1.24580e+00 -3.68851e+00  7.17713e+00
       O -3.17639e-01 -9.55553e+00  6.17096e+00
       H -2.35867e-01 -9.53483e+00  4.37196e+00
       H -2.96216e-01 -7.75115e+00  6.75128e+00
       O  3.93689e+00 -2.15571e+00  6.14822e+00
       H  4.00170e+00 -2.17465e+00  4.35794e+00
       H  3.94326e+00 -2.86743e-01  6.70166e+00
       O  3.04875e-01  4.82734e+00 -1.31708e+01
       H -8.58916e-01  3.79685e+00 -1.37023e+01
       H  1.75617e+00  3.80116e+00 -1.36200e+01
       O  4.49945e+00  1.21455e+01 -1.31964e+01
       H  3.04423e+00  1.11240e+01 -1.36541e+01
       H  5.83181e+00  1.12202e+01 -1.35084e+01
       O  4.47629e+00  2.18926e+00 -7.89753e-01
       H  4.70899e+00  4.56388e-01 -1.80563e-01
       H  4.39488e+00  2.13610e+00 -2.44848e+00
       O  2.90391e-01  9.45618e+00 -7.99679e-01
       H  3.90565e-01  7.70396e+00 -2.43471e-01
       H  9.83872e-02  9.41847e+00 -2.49616e+00
       O  3.97521e+00  2.52349e+00 -6.22183e+00
       H  2.42759e+00  3.44575e+00 -6.74796e+00
       H  5.42584e+00  3.67421e+00 -6.77462e+00
       O -3.07820e-01  9.90804e+00 -6.31009e+00
       H -1.88936e+00  1.07936e+01 -6.53210e+00
       H  1.11612e+00  1.11210e+01 -6.50283e+00
       O -2.79788e-01  5.17877e+00 -7.72731e+00
       H -4.75079e-02  5.23133e+00 -9.57403e+00
       H -2.61350e-01  6.92341e+00 -7.15974e+00
       O  3.93808e+00  1.25636e+01 -7.74509e+00
       H  4.30383e+00  1.26738e+01 -9.62322e+00
       H  3.87252e+00  1.42875e+01 -7.03500e+00
       O  2.89993e-01  4.75428e+00  6.84731e-01
       H -1.21931e+00  3.75504e+00  1.90802e-01
       H  1.70469e+00  3.69505e+00  3.71643e-01
       O  4.53845e+00  1.21593e+01  6.99949e-01
       H  2.96224e+00  1.11219e+01  1.11286e-01
       H  6.02029e+00  1.10474e+01  2.86616e-01
       O  4.52374e+00  2.17211e+00  1.30436e+01
       H  4.58128e+00  3.13137e-01  1.35428e+01
       H  4.22991e+00  2.05410e+00  1.11147e+01
       O  2.64862e-01  9.55981e+00  1.30740e+01
       H  3.80485e-01  7.74838e+00  1.37623e+01
       H -1.06641e-02  9.34189e+00  1.14192e+01
       O  3.90533e+00  2.56221e+00  7.60909e+00
       H  2.42368e+00  3.53118e+00  7.24864e+00
       H  5.40864e+00  3.71247e+00  7.12737e+00
       O -3.36676e-01  9.90497e+00  7.60796e+00
       H -1.76001e+00  1.09513e+01  7.30431e+00
       H  1.27688e+00  1.09099e+01  7.10667e+00
       O -2.98881e-01  5.20443e+00  6.10372e+00
       H -5.37921e-02  5.24783e+00  4.38081e+00
       H -2.48037e-01  6.93823e+00  6.69811e+00
       O  3.93790e+00  1.24932e+01  6.10393e+00
       H  4.14768e+00  1.27014e+01  4.51003e+00
       H  4.20402e+00  1.43235e+01  6.79069e+00
192
# CELL(abcABC):   16.99620    29.43815    27.67315    90.00000    90.00000    90.00000  Step:          20  Bead:      18 positions{atomic_unit}  cell{atomic_unit}
       O -8.13470e+00 -9.93376e+00 -1.31355e+01
       H  7.15995e+00 -1.09684e+01 -1.37246e+01
       H -6.60480e+00 -1.10861e+01 -1.35917e+01
       O -4.00279e+00 -2.55387e+00 -1.31784e+01
       H -5.41559e+00 -3.55905e+00 -1.36317e+01
       H -2.47377e+00 -3.41455e+00 -1.34855e+01
       O -3.95211e+00 -1.25057e+01 -7.76543e-01
       H -4.06969e+00 -1.42479e+01 -3.55114e-01
       H -4.36551e+00 -1.26039e+01 -2.64784e+00
       O -8.22941e+00 -5.14106e+00 -7.95708e-01
       H -8.22342e+00 -6.80646e+00 -3.38408e-01
       H -8.50693e+00 -5.14093e+00 -2.29452e+00
       O -4.49799e+00 -1.21753e+01 -6.29590e+00
       H -5.96165e+00 -1.11126e+01 -6.71627e+00
       H -2.87940e+00 -1.10285e+01 -6.70544e+00
       O  8.23678e+00 -4.81251e+00 -6.26551e+00
       H  6.99552e+00 -3.72474e+00 -6.75130e+00
       H -7.32154e+00 -3.89346e+00 -6.80597e+00
       O  8.28455e+00 -9.57056e+00 -7.64810e+00
       H  8.37807e+00 -9.64019e+00 -9.49561e+00
       H  8.16798e+00 -8.01583e+00 -7.25777e+00
       O -4.52059e+00 -2.16894e+00 -7.69783e+00
       H -4.47262e+00 -2.22343e+00 -9.37566e+00
       H -4.61460e+00 -4.99421e-01 -7.06993e+00
       O -8.18079e+00 -9.91194e+00  6.59501e-01
       H  7.21393e+00 -1.11006e+01  2.57397e-01
       H -6.84306e+00 -1.10216e+01  3.55431e-01
       O -3.99363e+00 -2.56042e+00  6.62688e-01
       H -5.47258e+00 -3.50266e+00  4.13268e-01
       H -2.51495e+00 -3.69700e+00  8.38661e-02
       O -3.92274e+00 -1.25512e+01  1.30946e+01
       H -4.03899e+00 -1.43581e+01  1.35325e+01
       H -4.27012e+00 -1.24299e+01  1.13074e+01
       O -8.22605e+00 -5.14126e+00  1.30406e+01
       H -8.05111e+00 -6.87206e+00  1.36551e+01
       H -8.25045e+00 -4.80759e+00  1.10675e+01
       O -4.56689e+00 -1.21168e+01  7.57691e+00
       H -6.00056e+00 -1.12163e+01  7.19353e+00
       H -2.99511e+00 -1.08665e+01  7.15001e+00
       O  8.15847e+00 -4.78238e+00  7.55254e+00
       H  6.59172e+00 -3.98688e+00  6.90036e+00
       H -7.34505e+00 -3.76267e+00  7.16373e+00
       O  8.20998e+00 -9.55453e+00  6.11707e+00
       H  8.30944e+00 -9.27120e+00  4.32882e+00
       H  8.47832e+00 -7.88778e+00  6.70535e+00
       O -4.61945e+00 -2.12568e+00  6.16606e+00
       H -4.36515e+00 -2.30537e+00  4.43443e+00
       H -4.46873e+00 -3.61824e-01  6.93318e+00
       O -8.22246e+00  4.75343e+00 -1.32216e+01
       H  7.30237e+00  3.73217e+00 -1.36595e+01
       H -6.52513e+00  3.74762e+00 -1.35900e+01
       O -3.92963e+00  1.21294e+01 -1.31608e+01
       H -5.46682e+00  1.13776e+01 -1.37034e+01
       H -2.35145e+00  1.11527e+01 -1.35261e+01
       O -3.98411e+00  2.16454e+00 -8.10941e-01
       H -4.07287e+00  3.37054e-01 -1.49980e-01
       H -4.13363e+00  2.39793e+00 -2.67948e+00
       O -8.15416e+00  9.54714e+00 -8.12394e-01
       H -8.13371e+00  7.69196e+00 -2.16562e-01
       H -8.23462e+00  9.50640e+00 -2.72691e+00
       O -4.55950e+00  2.50071e+00 -6.22098e+00
       H -6.25096e+00  3.73355e+00 -6.67628e+00
       H -2.84526e+00  3.68634e+00 -6.44920e+00
       O  8.19223e+00  9.94510e+00 -6.23382e+00
       H  6.69397e+00  1.09492e+01 -6.25707e+00
       H -7.15897e+00  1.09891e+01 -6.42797e+00
       O  8.17653e+00  5.18173e+00 -7.68599e+00
       H  8.26042e+00  5.13984e+00 -9.28592e+00
       H  8.04536e+00  7.29265e+00 -7.23508e+00
       O -4.57051e+00  1.25367e+01 -7.68380e+00
       H -4.28637e+00  1.26909e+01 -9.49468e+00
       H -4.53856e+00  1.46202e+01 -7.20599e+00
       O -8.22048e+00  4.72141e+00  6.80332e-01
       H  7.30189e+00  3.83976e+00  1.60000e-01
       H -6.70620e+00  3.72379e+00  6.36686e-01
       O -3.98954e+00  1.21649e+01  6.44947e-01
       H -5.47965e+00  1.11097e+01  3.05355e-02
       H -2.19225e+00  1.11784e+01  4.35302e-01
       O -3.93405e+00  2.19802e+00  1.30761e+01
       H -4.01450e+00  5.14656e-01  1.34011e+01
       H -4.04740e+00  2.23154e+00  1.13733e+01
       O -8.18371e+00  9.47999e+00  1.31009e+01
       H -8.16096e+00  7.52762e+00  1.33917e+01
       H -8.36152e+00  9.48480e+00  1.11813e+01
       O -4.47864e+00  2.57457e+00  7.52727e+00
       H -6.10486e+00  3.64155e+00  6.99171e+00
       H -3.11027e+00  3.45267e+00  6.87059e+00
       O  8.13895e+00  9.99681e+00  7.61321e+00
       H  6.84418e+00  1.08279e+01  7.09939e+00
       H -7.27812e+00  1.07685e+01  7.35665e+00
       O  8.23403e+00  5.18188e+00  6.17401e+00
       H  8.67628e+00  5.25148e+00  4.36486e+00
       H  8.11511e+00  6.75887e+00  6.75211e+00
       O -4.53305e+00  1.25122e+01  6.08322e+00
       H -4.21328e+00  1.27436e+01  4.17583e+00
       H -4.37348e+00  1.42117e+01  6.68086e+00
       O  2.97529e-01 -9.96378e+00 -1.32281e+01
       H -1.23728e+00 -1.11589e+01 -1.37652e+01
       H  1.98636e+00 -1.09136e+01 -1.32955e+01
       O  4.58422e+00 -2.61567e+00 -1.31206e+01
       H  3.20163e+00 -3.80644e+00 -1.37305e+01
       H  6.03003e+00 -3.67101e+00 -1.34391e+01
       O  4.50210e+00 -1.25682e+01 -7.85392e-01
       H  4.58486e+00 -1.44263e+01 -3.41717e-01
       H  4.43504e+00 -1.25712e+01 -2.61908e+00
       O  2.94661e-01 -5.18437e+00 -8.18545e-01
       H  2.02287e-01 -7.19400e+00 -4.59198e-01
       H  2.89056e-01 -5.07966e+00 -2.67974e+00
       O  3.95860e+00 -1.22467e+01 -6.16699e+00
       H  2.39620e+00 -1.11220e+01 -6.72977e+00
       H  5.46942e+00 -1.12846e+01 -6.74581e+00
       O -3.14492e-01 -4.75788e+00 -6.30069e+00
       H -1.99820e+00 -3.73351e+00 -6.63514e+00
       H  1.24872e+00 -3.69147e+00 -6.88197e+00
       O -3.17172e-01 -9.53366e+00 -7.70342e+00
       H -2.53992e-01 -9.39455e+00 -9.55736e+00
       H -3.30711e-01 -7.53954e+00 -6.91382e+00
       O  3.96793e+00 -2.18669e+00 -7.71008e+00
       H  4.12625e+00 -2.08395e+00 -9.36922e+00
       H  3.85340e+00 -3.06515e-01 -7.00658e+00
       O  2.39193e-01 -9.90073e+00  6.10638e-01
       H -9.54229e-01 -1.10873e+01  2.78427e-01
       H  1.73058e+00 -1.08298e+01  4.97106e-01
       O  4.50280e+00 -2.57808e+00  6.39957e-01
       H  3.11944e+00 -3.58490e+00  1.30556e-01
       H  6.15678e+00 -3.43955e+00  1.71294e-01
       O  4.53752e+00 -1.25104e+01  1.30592e+01
       H  4.60722e+00 -1.43636e+01  1.35002e+01
       H  4.44741e+00 -1.24566e+01  1.13013e+01
       O  2.06289e-01 -5.14544e+00  1.30211e+01
       H  2.08079e-01 -6.99518e+00  1.39539e+01
       H  3.42878e-01 -5.17339e+00  1.12951e+01
       O  3.86566e+00 -1.21242e+01  7.62604e+00
       H  2.33119e+00 -1.10695e+01  7.16610e+00
       H  5.52192e+00 -1.12776e+01  7.02238e+00
       O -2.42279e-01 -4.84539e+00  7.57562e+00
       H -1.75590e+00 -3.94706e+00  7.22129e+00
       H  1.05764e+00 -3.65524e+00  7.16955e+00
       O -3.22183e-01 -9.55875e+00  6.20135e+00
       H -2.81653e-01 -9.52880e+00  4.45385e+00
       H -4.06361e-01 -7.85639e+00  6.66307e+00
       O  3.90290e+00 -2.16773e+00  6.14663e+00
       H  4.02118e+00 -2.24609e+00  4.41073e+00
       H  3.98653e+00 -3.04544e-01  6.60064e+00
       O  3.10119e-01  4.80832e+00 -1.31745e+01
       H -9.38607e-01  3.93952e+00 -1.38042e+01
       H  1.68627e+00  3.72364e+00 -1.37151e+01
       O  4.52563e+00  1.21447e+01 -1.32015e+01
       H  3.12411e+00  1.10957e+01 -1.36357e+01
       H  5.82881e+00  1.11217e+01 -1.35516e+01
       O  4.47657e+00  2.20215e+00 -7.95810e-01
       H  4.78617e+00  4.18301e-01 -2.21562e-01
       H  4.40166e+00  2.06806e+00 -2.52678e+00
       O  2.86840e-01  9.46667e+00 -7.46847e-01
       H  3.79584e-01  7.62712e+00 -7.53477e-02
       H  1.16341e-01  9.38769e+00 -2.47377e+00
       O  3.98954e+00  2.54204e+00 -6.19731e+00
       H  2.51511e+00  3.47286e+00 -6.84590e+00
       H  5.43047e+00  3.56820e+00 -6.76305e+00
       O -3.23959e-01  9.86981e+00 -6.33507e+00
       H -1.98104e+00  1.08468e+01 -6.64290e+00
       H  1.28226e+00  1.11002e+01 -6.64927e+00
       O -2.50496e-01  5.19724e+00 -7.67159e+00
       H  7.26864e-02  5.15568e+00 -9.71172e+00
       H -3.47124e-02  6.96647e+00 -7.06981e+00
       O  3.93585e+00  1.25825e+01 -7.77892e+00
       H  4.32623e+00  1.26978e+01 -9.46827e+00
       H  3.85166e+00  1.41067e+01 -6.93926e+00
       O  2.70535e-01  4.72296e+00  6.61193e-01
       H -1.08783e+00  3.80030e+00  2.10902e-01
       H  1.61274e+00  3.75606e+00  3.19341e-01
       O  4.55772e+00  1.21829e+01  7.31293e-01
       H  3.18300e+00  1.12072e+01  7.02256e-02
       H  5.81336e+00  1.10245e+01  2.92148e-01
       O  4.55706e+00  2.18178e+00  1.30188e+01
       H  4.52295e+00  6.03744e-02  1.36016e+01
       H  4.38127e+00  1.94188e+00  1.10291e+01
       O  2.66907e-01  9.57473e+00  1.30341e+01
       H  3.68926e-01  7.81591e+00  1.36319e+01
       H -3.04040e-03  9.25173e+00  1.16095e+01
       O  3.89703e+00  2.54745e+00  7.59430e+00
       H  2.45275e+00  3.36034e+00  7.30240e+00
       H  5.38841e+00  3.78934e+00  7.26445e+00
       O -3.72371e-01  9.91349e+00  7.61125e+00
       H -1.82309e+00  1.09847e+01  7.38399e+00
       H  1.36732e+00  1.09360e+01  7.27282e+00
       O -2.97772e-01  5.19422e+00  6.08436e+00
       H -2.98452e-02  5.35105e+00  4.42575e+00
       H -2.03785e-01  6.95634e+00  6.57349e+00
       O  4.00645e+00  1.24868e+01  6.11890e+00
       H  4.04726e+00  1.26563e+01  4.37674e+00
       H  4.05503e+00  1.44394e+01  6.98057e+00
192
# CELL(abcABC):   16.99620    29.43815    27.67315    90.00000    90.00000    90.00000  Step:          30  Bead:      18 positions{atomic_unit}  cell{atomic_unit}
       O -8.16259e+00 -9.92942e+00 -1.31125e+01
       H  6.95748e+00 -1.09969e+01 -1.36077e+01
       H -6.46473e+00 -1.11562e+01 -1.37480e+01
       O -4.01027e+00 -2.51994e+00 -1.31515e+01
       H -5.50421e+00 -3.51173e+00 -1.36005e+01
       H -2.45149e+00 -3.44848e+00 -1.35259e+01
       O -3.97997e+00 -1.24592e+01 -8.07061e-01
       H -4.15426e+00 -1.43435e+01 -1.98708e-01
       H -4.38471e+00 -1.26470e+01 -2.64184e+00
       O -8.23133e+00 -5.12049e+00 -7.83930e-01
       H -8.03375e+00 -6.92202e+00 -3.23688e-01
       H -8.47677e+00 -5.18136e+00 -2.37414e+00
       O -4.48242e+00 -1.21573e+01 -6.29595e+00
       H -5.88553e+00 -1.11078e+01 -6.58884e+00
       H -2.60785e+00 -1.11818e+01 -6.75535e+00
       O  8.22646e+00 -4.80589e+00 -6.24344e+00
       H  6.95613e+00 -3.72571e+00 -6.68966e+00
       H -7.24056e+00 -3.74415e+00 -6.95511e+00
       O  8.25177e+00 -9.57575e+00 -7.64014e+00
       H  8.35608e+00 -9.70695e+00 -9.38675e+00
       H  8.29569e+00 -7.91928e+00 -7.23077e+00
       O -4.49677e+00 -2.13351e+00 -7.70272e+00
       H -4.37750e+00 -2.00085e+00 -9.32511e+00
       H -4.74246e+00 -5.05860e-01 -7.09869e+00
       O -8.18073e+00 -9.92436e+00  6.51127e-01
       H  7.28968e+00 -1.10047e+01  1.14096e-01
       H -6.76275e+00 -1.09384e+01  5.01656e-01
       O -3.95960e+00 -2.57205e+00  6.76658e-01
       H -5.54380e+00 -3.49504e+00  4.09834e-01
       H -2.63108e+00 -3.89329e+00  1.19342e-01
       O -3.91897e+00 -1.25399e+01  1.30834e+01
       H -3.96977e+00 -1.43867e+01  1.34952e+01
       H -4.31205e+00 -1.25586e+01  1.11308e+01
       O -8.24872e+00 -5.15779e+00  1.30591e+01
       H -8.10123e+00 -6.97859e+00  1.36504e+01