192
# CELL(abcABC):   16.99620    29.43815    27.67315    90.00000    90.00000    90.00000  Step:           0  Bead:      14 velocities{atomic_unit}  cell{atomic_unit}
       O -9.34946e-04 -7.63826e-04  9.54824e-04
       H -9.05499e-04  2.57654e-04 -7.08022e-03
       H -2.39052e-03  1.30010e-03  6.77981e-03
       O  9.95456e-04 -1.21880e-03  1.33424e-04
       H -7.44469e-04  2.00790e-03  1.22109e-03
       H  2.33142e-03 -3.40544e-03 -1.65318e-04
       O -1.15634e-03  5.00762e-05 -2.74271e-04
       H -1.94440e-03  5.68405e-03 -2.77983e-03
       H -4.43298e-03 -4.92982e-03 -4.33813e-03
       O  2.97345e-04  8.57758e-04  1.40321e-04
       H -4.41000e-03  2.13595e-03 -2.21226e-03
       H  3.79411e-03  2.91839e-04 -4.10277e-04
       O  1.68569e-03 -6.72668e-04  1.04848e-03
       H  3.99733e-03  2.37463e-03 -4.00501e-04
       H  1.05982e-03  4.51108e-03 -2.43695e-03
       O  5.75915e-04  3.52578e-04 -1.49767e-03
       H  5.72635e-03 -1.28961e-03  1.96418e-03
       H  3.33520e-03  3.23668e-03 -3.84429e-03
       O  1.63257e-04 -5.66090e-04  4.67598e-04
       H -2.14423e-03  1.46755e-03  4.55489e-03
       H -3.38419e-05  7.82584e-03  4.60588e-03
       O -5.69056e-04 -5.36653e-04  1.21862e-03
       H  3.52457e-03 -3.95081e-03 -1.75106e-03
       H  1.54305e-03 -3.22814e-03 -6.38574e-03
       O  9.62244e-04 -1.66627e-03  4.63462e-04
       H -2.32429e-03  3.09452e-03  7.35410e-03
       H  8.83257e-03 -4.26482e-03 -6.26817e-03
       O -1.78905e-03 -1.35407e-03 -1.96391e-04
       H  4.64867e-03 -3.23310e-03 -1.34008e-03
       H  6.44366e-03  1.66687e-03 -2.24063e-03
       O  1.37576e-03 -7.97323e-04 -7.07176e-04
       H -2.61776e-04 -2.14259e-03 -1.65773e-03
       H  8.22234e-04  3.68587e-03 -7.05035e-03
       O  7.54487e-04 -9.87646e-04  7.42252e-04
       H  4.77383e-04  6.18795e-03  3.80332e-03
       H  2.69231e-03  2.73930e-03 -4.57430e-03
       O  6.73475e-04  1.02697e-03 -1.91863e-03
       H -2.12464e-03  5.18578e-03  3.71260e-04
       H  4.73157e-03 -1.11292e-03  3.54649e-03
       O -5.15255e-04 -5.68619e-04  1.52811e-03
       H  9.70141e-04  1.18822e-02 -2.79426e-03
       H  2.67424e-03  8.98163e-03 -1.34106e-03
       O -4.50228e-04 -1.06138e-03  9.81175e-04
       H  7.58543e-05  1.11894e-04  2.70557e-03
       H -4.57270e-03 -5.10160e-03 -1.90741e-03
       O -1.41950e-03  1.91825e-04 -1.07470e-03
       H  5.55990e-03 -2.39074e-03 -4.44170e-03
       H -7.86466e-04  1.59187e-03 -4.05584e-03
       O -8.94965e-04 -1.64839e-04  4.03019e-04
       H  5.29903e-03 -2.20720e-03  9.79933e-04
       H -4.63416e-03  5.53361e-03  1.86665e-03
       O  5.41341e-04  2.69150e-04 -8.26771e-04
       H -9.77725e-03  1.94649e-03  5.65840e-03
       H -1.95176e-03  6.48279e-03  4.36717e-03
       O -2.11878e-04 -9.69453e-04 -2.02530e-03
       H -2.00683e-03  1.18749e-03  5.26331e-04
       H  9.05395e-04 -3.38917e-04  6.22754e-03
       O  2.80476e-04  2.60929e-04 -1.36236e-03
       H -1.19711e-04 -4.55026e-03  3.17466e-03
       H -3.89801e-04 -1.14875e-03 -1.62002e-03
       O  8.35769e-04 -4.29079e-04  9.10896e-04
       H -2.62237e-03  1.87283e-03  4.16051e-03
       H  3.66298e-03  6.06056e-04 -4.21989e-03
       O  7.96913e-05 -6.54410e-04 -3.77535e-05
       H  2.91299e-03 -7.07036e-03  2.97354e-03
       H -2.15000e-03 -3.12586e-03  2.84863e-03
       O -7.32666e-04  1.33078e-03  3.15096e-04
       H -1.75283e-04 -5.84511e-03 -1.44651e-03
       H -1.29259e-03  2.84964e-03  5.38782e-04
       O -1.88153e-05 -2.68697e-05  1.44215e-03
       H -2.03874e-03  8.90745e-04 -4.00199e-03
       H -6.99236e-03  2.76565e-03 -3.16310e-03
       O -3.52675e-04 -2.09830e-04  6.63233e-04
       H  3.92009e-04  2.01971e-03 -2.31354e-03
       H -9.52828e-04  2.47569e-03  4.05478e-03
       O  1.01507e-03 -5.01103e-05 -3.28566e-04
       H -6.75879e-04 -4.93470e-03  7.53851e-03
       H -2.62951e-04  8.88253e-03  3.57017e-03
       O -2.33878e-04  8.86221e-05  3.45923e-04
       H  6.17923e-04 -2.09153e-04 -1.02087e-02
       H  2.03980e-03  1.44712e-03 -9.67465e-04
       O  2.21902e-04 -3.87616e-04 -6.21237e-04
       H -3.13413e-03 -2.15567e-04 -1.52846e-03
       H  1.05854e-03  1.83605e-03 -2.00416e-03
       O  1.16215e-03  1.17957e-03  1.09630e-03
       H -1.66221e-03  6.44117e-03  4.79308e-03
       H -5.35622e-03  1.26845e-03 -4.95879e-04
       O  5.91286e-04  7.60381e-04  5.25249e-04
       H  6.40188e-03  1.04376e-03  2.59942e-03
       H -1.83460e-03 -5.37004e-03  6.28249e-03
       O  4.09164e-04  8.88086e-06  4.03712e-05
       H -3.21754e-03  3.12604e-03  3.98183e-03
       H  1.70909e-04  1.71846e-03 -2.51441e-03
       O  1.12309e-03  1.54896e-04 -9.68017e-04
       H  2.73050e-03  3.68437e-03  2.40804e-04
       H  3.47179e-03  3.34929e-03  3.31760e-03
       O  6.44997e-04  6.25286e-04 -1.01722e-03
       H  1.40701e-03  4.44828e-03 -3.74860e-03
       H -4.74974e-04  3.46479e-03 -1.49590e-03
       O  6.74942e-04 -3.40750e-04  4.40621e-04
       H -3.25786e-03  1.06407e-03  1.19692e-03
       H  3.20227e-03  2.26519e-04 -4.26158e-03
       O  3.18649e-04 -1.92353e-03 -7.28985e-04
       H  5.19313e-03  2.41442e-03  6.74839e-04
       H -3.26487e-03  3.33290e-03  2.76395e-03
       O  4.37140e-05  1.00490e-03 -4.80035e-04
       H -1.47117e-03 -6.12283e-03 -2.07220e-04
       H -2.78465e-03  1.93693e-03  7.51894e-04
       O  4.61046e-04  8.13632e-04  1.06304e-04
       H -3.82277e-04  3.57977e-03  2.62803e-04
       H  1.16180e-03  4.05114e-03  1.81349e-03
       O  6.40645e-04 -6.25596e-06 -1.00136e-03
       H  1.39615e-03  1.78888e-03  2.25917e-04
       H  2.00328e-03  1.43002e-03 -7.76766e-03
       O  1.38333e-03 -8.44132e-04  1.31062e-03
       H  1.04032e-03  1.60589e-03 -3.93499e-03
       H -4.11262e-03  8.32232e-04 -3.28481e-03
       O -1.02541e-03  3.13409e-04  3.91865e-04
       H -3.64298e-04  1.39323e-03  6.60423e-03
       H -2.33239e-03 -5.16552e-03 -2.14431e-03
       O  5.65516e-04 -6.79723e-04  1.39075e-03
       H  1.68913e-03  7.67685e-04  2.28816e-04
       H  2.15064e-03 -1.84304e-03  9.59239e-03
       O  9.30969e-04  2.15016e-04 -3.75900e-04
       H  1.33722e-03 -2.86528e-03  4.58656e-03
       H  7.16493e-03 -9.42117e-03  1.88073e-03
       O  8.60134e-04  3.27271e-04  2.00105e-04
       H  1.40735e-03 -4.30258e-03  4.30741e-03
       H -6.77109e-03 -3.39197e-03 -5.04593e-03
       O -6.83118e-04  9.24795e-05 -1.45630e-03
       H -1.29216e-03  2.38724e-03 -1.99878e-03
       H  1.03349e-03  2.20006e-03 -3.49541e-03
       O  7.46519e-04 -7.26900e-04 -1.00722e-03
       H  9.26095e-04  2.44607e-04  9.77521e-04
       H -2.76239e-03  3.38204e-03  7.46949e-04
       O  5.85527e-04  5.61714e-04 -1.57863e-03
       H -8.15568e-03  2.93817e-04 -2.71770e-03
       H  2.13839e-03  4.65846e-03 -3.03047e-03
       O  1.78672e-04 -8.54105e-04 -1.28218e-03
       H  7.72741e-03  2.17468e-03  1.41449e-03
       H -2.38889e-03  4.58330e-03 -4.31863e-04
       O  1.33624e-03 -2.13387e-03  3.60566e-04
       H  2.88458e-03  3.67745e-04  3.11170e-04
       H  1.27649e-03 -8.43725e-04  3.20144e-03
       O -1.12045e-03 -1.76374e-03  6.84834e-04
       H -1.24260e-03 -5.01410e-03 -1.11412e-03
       H -1.49286e-03 -2.18976e-03 -4.09008e-03
       O  1.33354e-03  4.44325e-05  4.93213e-04
       H -8.45785e-04 -8.13848e-03 -1.17985e-03
       H -1.40190e-03 -1.64072e-03 -1.52244e-03
       O  5.39054e-04  1.96467e-03 -1.35849e-03
       H -2.72117e-03  2.33150e-03  5.05435e-03
       H  5.11073e-03  1.64636e-03  2.47929e-03
       O  3.65860e-04  1.26943e-03 -2.41332e-04
       H  3.11757e-03  8.16738e-05 -5.62234e-03
       H -2.86932e-03  5.19027e-03 -8.48802e-04
       O -7.24867e-04  6.78496e-04  6.83950e-04
       H -9.77002e-04  2.52301e-03 -6.53327e-04
       H  3.14971e-03  9.09750e-04 -3.31536e-03
       O  1.07192e-03  2.19793e-03  7.20097e-04
       H -1.78952e-03 -3.69966e-03  1.06749e-04
       H  9.48846e-03  2.46864e-03 -4.31719e-03
       O  9.96761e-04 -1.04346e-05  2.67984e-04
       H  1.14844e-03 -2.85859e-03 -2.80548e-03
       H  2.71939e-03  1.37675e-03  2.02243e-03
       O -1.45926e-03  3.22751e-04  9.78222e-04
       H  4.67832e-04 -2.07111e-03 -1.24132e-03
       H  3.73548e-03 -3.19040e-03 -3.92967e-03
       O -2.15126e-05  1.51308e-03 -1.00592e-04
       H -6.98350e-04  1.10060e-03 -2.48745e-03
       H -4.25545e-03 -5.35914e-03  4.23933e-03
       O -1.51695e-03  1.38867e-03  6.71964e-04
       H  3.44389e-03 -3.33272e-03 -1.47772e-03
       H -2.64141e-03  1.00757e-03  8.65334e-03
       O  8.78049e-04  4.12562e-04 -1.14567e-03
       H  1.88016e-03 -4.61860e-03  1.86142e-03
       H  4.10728e-03  1.58022e-03 -2.76168e-03
       O -1.97622e-03  1.66798e-03  4.14037e-04
       H -2.97878e-03  4.39623e-03  9.74516e-06
       H  3.15736e-03  4.62075e-03 -3.33724e-03
       O -6.11304e-04  5.60020e-04  1.48589e-04
       H  1.94474e-03 -8.08946e-03 -3.31969e-03
       H -4.76576e-03 -7.02098e-03 -1.77819e-03
       O  2.52044e-04 -1.34857e-03 -1.20243e-03
       H -1.33035e-03 -5.66418e-03  6.44537e-04
       H -6.19167e-03 -2.64310e-03 -2.45276e-03
       O -8.85805e-05 -1.63823e-03 -2.27757e-04
       H -3.62979e-03 -1.21638e-03  7.76485e-03
       H -1.03834e-02  3.85384e-03  3.64532e-03
       O  7.84701e-04 -4.45623e-04 -8.05731e-04
       H -8.48842e-04  5.66173e-03 -1.14259e-03
       H  1.18245e-04  1.71461e-05  1.49488e-03
192
# CELL(abcABC):   16.99620    29.43815    27.67315    90.00000    90.00000    90.00000  Step:          10  Bead:      14 velocities{atomic_unit}  cell{atomic_unit}
       O -1.46288e-03  6.95900e-04  1.00659e-03
       H -7.79023e-03  2.51625e-03 -3.93501e-03
       H  2.62726e-03 -1.16122e-03 -7.95423e-03
       O -7.61036e-04 -2.54810e-03  1.09863e-03
       H  1.73433e-03 -5.70688e-03 -1.36866e-03
       H  2.59178e-03  3.76819e-04 -3.97195e-03
       O  7.59565e-04 -7.75203e-04 -5.34798e-04
       H  7.68466e-04 -2.80821e-03 -9.46631e-04
       H -5.58594e-03 -2.80550e-03  3.39443e-04
       O  3.84171e-04  9.41341e-05 -3.99096e-04
       H  2.31331e-03 -3.97877e-03  1.06778e-03
       H -6.48668e-03  1.29493e-03  1.90667e-03
       O  1.36446e-04 -1.20645e-03 -1.50372e-03
       H -3.36504e-03  4.05959e-04  1.36908e-03
       H  4.03024e-03 -4.70316e-03 -1.98040e-03
       O -2.22081e-04  7.92759e-05  8.59150e-04
       H  2.52293e-05 -1.91905e-03 -2.12726e-03
       H -5.53131e-04 -5.43315e-03  1.02481e-03
       O -7.24653e-05  8.02804e-04  1.57908e-05
       H -7.10992e-05 -6.18970e-03 -3.82540e-04
       H -4.26173e-03  5.10830e-03  1.07346e-04
       O -8.87961e-04 -1.07362e-03  4.51999e-04
       H -8.68016e-04  1.37558e-03 -2.75354e-03
       H  2.18914e-03  3.84461e-03 -3.71854e-04
       O -1.20812e-03  1.94740e-04 -9.41893e-04
       H -2.61204e-03 -1.34048e-03  1.05640e-04
       H  3.44572e-03  3.68986e-03 -2.29694e-03
       O  5.88926e-04 -6.87332e-04  6.74660e-04
       H  7.58682e-04  8.52115e-03  4.59242e-03
       H -3.16908e-03  1.55682e-03 -2.69199e-03
       O -1.94864e-03  1.05062e-03  5.60542e-05
       H  3.77904e-03 -1.96096e-04  4.24443e-03
       H  4.93957e-03  2.37955e-03 -1.68978e-03
       O  1.11085e-03  3.92230e-04 -1.62096e-03
       H -5.52106e-03 -5.23768e-03  4.01805e-03
       H  3.02740e-03  1.61678e-03  4.83279e-03
       O  1.74459e-03  1.17413e-03 -3.42976e-04
       H  3.74760e-03  1.35503e-03  9.75469e-04
       H -5.99251e-03  2.65596e-03 -1.52922e-03
       O  5.40624e-04 -2.47725e-04 -1.73565e-04
       H -1.69929e-03 -6.10366e-04 -2.82435e-04
       H -7.61039e-03 -1.64081e-04 -3.55591e-03
       O -4.49986e-05  1.36790e-03  5.84988e-04
       H  3.40449e-03 -1.57985e-03  3.10987e-03
       H  4.45161e-04 -4.97119e-03  1.60007e-03
       O  5.28065e-04  1.88968e-03 -1.18641e-03
       H  1.88120e-03  2.83588e-03 -2.89209e-03
       H  7.71562e-03 -2.99772e-03 -2.71941e-04
       O -1.05936e-03 -1.42213e-03 -5.01549e-04
       H  3.83604e-03 -1.48628e-03  1.16900e-03
       H  3.45430e-03 -4.44092e-03  4.15035e-03
       O -7.13109e-04 -8.98035e-04 -1.16101e-03
       H  6.46878e-03  3.66504e-03 -7.54698e-03
       H  3.83210e-03 -1.68306e-03 -1.89848e-03
       O -5.50562e-04  5.26881e-04 -1.22888e-03
       H -5.27206e-04 -1.88142e-03 -5.29105e-03
       H -3.25386e-03 -5.31824e-03 -1.76986e-03
       O  4.11755e-04 -2.93372e-04  8.06520e-04
       H  1.78865e-03  5.69216e-04 -2.70730e-03
       H -4.17867e-03  9.17536e-04 -3.09637e-03
       O  1.22081e-03  5.57687e-04 -4.95733e-04
       H -3.69981e-03  5.32239e-04  6.30402e-03
       H -5.17370e-03  1.90912e-03 -2.83223e-03
       O  8.57498e-04  8.13125e-04  7.49341e-04
       H -5.21068e-04 -2.73494e-03  1.49470e-03
       H  1.08146e-03 -7.45453e-03 -3.51220e-03
       O  7.27864e-04 -7.83762e-04  1.10584e-03
       H -2.71183e-03  1.04908e-03  3.28133e-03
       H -1.71205e-03  3.61024e-03  1.49745e-03
       O -7.63166e-04 -2.19123e-03  7.49659e-04
       H -8.56555e-04 -6.66914e-03 -2.44550e-03
       H  4.54193e-03  3.50552e-03  5.21457e-03
       O  3.30489e-04  1.61085e-04 -4.55950e-04
       H  1.02535e-02 -8.68928e-04  4.93918e-03
       H  1.15452e-03 -1.92401e-03  5.95660e-03
       O  9.20299e-05  6.48338e-04 -1.90467e-04
       H -4.37906e-04  3.31074e-03  2.07360e-03
       H -8.79325e-04 -2.70923e-03  1.09310e-03
       O  1.38373e-03 -6.10429e-04  9.08780e-04
       H -3.32177e-04  4.66639e-03  1.93810e-03
       H -3.88141e-03  2.71303e-04 -2.40456e-03
       O  3.45592e-04  4.33999e-04 -7.69549e-04
       H  2.32778e-03  2.90509e-03 -4.68481e-03
       H -5.72764e-03  1.43317e-03  6.19735e-04
       O  1.75347e-04 -2.39750e-04  1.19896e-03
       H  1.17352e-03 -4.68917e-04 -5.43935e-03
       H  7.86966e-03 -6.09804e-03  1.42452e-03
       O  2.28474e-03  1.72528e-03 -4.63754e-04
       H  1.29988e-03  2.81921e-04 -2.56045e-03
       H  1.75873e-03  2.14253e-03  2.17537e-03
       O -6.43609e-04 -1.29382e-03  6.04747e-04
       H  1.42377e-03  7.19287e-05 -2.46995e-03
       H -4.74317e-04  2.42332e-03 -1.20906e-03
       O  6.01747e-04 -3.08108e-05  4.86737e-04
       H -5.27154e-03 -6.85154e-04 -2.23126e-03
       H  5.70119e-04  1.04212e-03  5.24910e-03
       O  5.86427e-04 -7.85027e-04 -2.16822e-04
       H -3.17328e-03 -6.87564e-04  1.40635e-03
       H -2.13383e-03 -8.72462e-03 -1.23835e-03
       O  7.95984e-04 -9.03790e-05 -1.35098e-04
       H  1.84489e-03 -6.62335e-05 -1.20824e-03
       H -3.01644e-03 -5.10409e-04 -2.04203e-03
       O -1.38112e-03 -1.04521e-03 -1.37717e-03
       H  1.31155e-03 -5.04571e-03  2.13953e-04
       H -2.39175e-03 -3.78434e-03  6.22294e-03
       O -7.09568e-04  4.24094e-05  1.67433e-03
       H -5.77594e-03  2.09050e-03 -3.81723e-03
       H  1.77741e-04  1.53765e-03  4.25449e-03
       O  5.22043e-04 -8.12387e-04  1.82158e-03
       H  4.27778e-03 -1.06159e-03  2.89278e-03
       H -1.87610e-03  4.34243e-03  1.65995e-03
       O  2.69372e-04 -6.46126e-04  3.91979e-04
       H  5.99361e-03 -1.94189e-03  2.52594e-03
       H  1.71063e-03 -3.94926e-03 -4.54126e-03
       O -5.52674e-04 -6.29834e-04  1.72838e-03
       H  1.19994e-03  1.27969e-03  1.05190e-03
       H  9.96402e-04  3.72289e-03  5.26603e-03
       O  1.79546e-03  2.14502e-05 -8.19457e-04
       H -3.58048e-03  3.25312e-03  1.20530e-03
       H -5.01495e-03 -1.51316e-03 -3.69063e-04
       O -5.79646e-04  4.02427e-04 -5.27739e-05
       H -2.72134e-04 -6.61806e-03  6.83021e-04
       H  1.25224e-03 -3.56785e-03 -2.40188e-03
       O  7.74721e-04  6.31798e-04 -3.33260e-04
       H  1.47216e-03  2.07579e-03  1.39137e-03
       H -6.08854e-03  1.54605e-03 -1.54332e-03
       O  1.16937e-03  1.24260e-03  7.15861e-04
       H  4.03887e-03  5.30314e-03 -1.39489e-03
       H -3.82770e-03  3.55649e-03  3.07235e-03
       O  3.40814e-04 -1.22149e-03  1.61054e-04
       H  2.62620e-03 -2.79662e-03 -3.06417e-03
       H  7.58994e-03  2.67259e-03  1.80630e-05
       O  1.43996e-03  1.10194e-03  5.29881e-04
       H -5.05353e-03 -7.04436e-03  8.62643e-05
       H  3.32902e-03 -1.11656e-03  3.69059e-04
       O  8.04480e-04  2.48244e-04 -1.56624e-04
       H  7.04449e-04 -2.63003e-04 -5.22204e-04
       H  3.50197e-03  3.06902e-03  5.98251e-03
       O -2.59557e-04 -1.55620e-03  6.42527e-05
       H  1.09284e-03  4.27474e-03 -6.95986e-03
       H -3.50594e-03 -1.21964e-03  4.48789e-03
       O  9.00200e-04  2.53085e-04 -2.01958e-03
       H  8.78179e-04 -3.69644e-04 -4.03675e-03
       H  3.54588e-03  4.23128e-03  1.31745e-03
       O  1.44337e-04  1.89787e-03  1.91372e-03
       H  9.41935e-04  2.34507e-03 -1.62141e-03
       H  1.16910e-03  1.67852e-04 -9.07580e-04
       O  3.87760e-04 -1.25185e-04 -3.14961e-04
       H  3.29354e-03 -5.80366e-03 -2.26115e-03
       H -8.61825e-05 -1.49809e-04  3.41171e-05
       O -9.65340e-05  1.53316e-03  4.73001e-04
       H  4.01861e-03 -1.00179e-03  4.18506e-05
       H -2.15518e-03  1.00587e-03  2.12369e-03
       O -5.16328e-04 -1.32623e-04 -3.28388e-04
       H -3.96316e-03  4.04145e-03  6.99410e-03
       H  2.61589e-03 -3.09790e-04  9.36165e-04
       O  2.31285e-04 -3.92487e-04 -2.59631e-04
       H  1.60280e-03  3.16718e-04  2.11409e-03
       H  1.90958e-03  1.26996e-03  3.80762e-03
       O  8.26210e-04 -4.58792e-04  7.08292e-05
       H  1.34696e-03  1.09191e-03 -2.35557e-03
       H -1.24414e-03  3.19763e-03  2.42006e-03
       O -2.25808e-04 -4.02098e-04 -1.00195e-03
       H -1.10352e-03  8.50756e-04  5.54105e-03
       H -3.68065e-03 -3.85211e-03  2.07764e-03
       O -1.02318e-03 -1.39847e-03 -1.39584e-03
       H  1.05476e-03  3.56642e-03 -1.96266e-03
       H  4.59638e-03  9.02183e-03  2.86725e-03
       O  6.17314e-04 -2.95349e-04  5.44115e-04
       H  1.26386e-03  5.41830e-04 -3.83235e-04
       H -2.37676e-03  2.84974e-03 -1.78902e-03
       O  2.34009e-04 -2.18725e-04 -6.91259e-06
       H  4.61358e-03  5.81144e-03  1.13497e-03
       H -3.45006e-03  6.16635e-04 -1.77103e-03
       O -7.98165e-04  4.69607e-04 -1.35650e-05
       H -2.54586e-03 -5.30463e-03  3.05181e-03
       H -7.19510e-04 -4.47233e-03 -1.21938e-03
       O -4.94626e-04  5.67902e-05  3.30962e-04
       H -3.05686e-03  5.24876e-04 -5.47585e-03
       H -1.59357e-03  1.76610e-03 -2.40847e-03
       O  1.06223e-03 -1.15462e-03  2.74728e-04
       H  3.04106e-03 -7.24042e-03  7.37239e-03
       H  4.21420e-03 -1.20613e-03  3.67787e-03
       O -1.81164e-03 -1.66335e-04  4.87686e-04
       H  1.33070e-03 -2.84160e-03  3.87163e-03
       H  4.54246e-05 -9.98495e-04 -2.92577e-03
       O  1.98229e-04 -1.86506e-04  3.37334e-05
       H -2.10023e-03 -5.83628e-03 -2.33745e-03
       H  7.60028e-04 -4.43674e-03 -2.90794e-03
       O -1.94236e-03 -3.58961e-04 -1.44541e-03
       H  4.54156e-03  3.60228e-04 -2.73028e-03
       H  6.82671e-03 -3.43016e-03  2.72604e-03
192
# CELL(abcABC):   16.99620    29.43815    27.67315    90.00000    90.00000    90.00000  Step:          20  Bead:      14 velocities{atomic_unit}  cell{atomic_unit}
       O  2.09466e-04 -6.97125e-04 -1.32391e-03
       H  3.44755e-03  6.51412e-04  1.26383e-03
       H -3.00681e-03 -3.60511e-03  1.84616e-03
       O  3.31789e-04  5.64302e-04 -7.48864e-04
       H  1.52011e-05  4.60474e-03  1.52489e-03
       H  4.64140e-03 -1.31360e-03  1.65884e-03
       O  1.74542e-03  4.00046e-04  3.29276e-04
       H -1.35585e-03  1.88228e-03  3.38819e-03
       H  2.62958e-03  1.62703e-03 -6.21901e-04
       O -2.02357e-04 -1.37093e-03  1.30203e-04
       H -3.53384e-03  4.54540e-03  1.20886e-03
       H -2.40467e-03 -2.13990e-03  4.54311e-03
       O -4.81141e-04  1.16939e-04 -5.41647e-04
       H -9.94211e-04 -2.96508e-03 -2.80930e-03
       H -4.80349e-03 -1.74723e-03  5.05088e-03
       O -8.20606e-05 -1.25973e-03 -6.16940e-04
       H  1.63755e-03 -4.40239e-03 -1.77008e-03
       H  1.46769e-03  5.73859e-03  3.68090e-04
       O -4.92101e-04  6.28964e-04  2.67491e-03
       H  6.91351e-03 -1.76614e-03  4.82397e-03
       H -3.20670e-03 -7.51941e-03 -4.52831e-03
       O  8.81613e-04  1.14674e-03  5.86705e-04
       H  2.47257e-03  1.56489e-03 -6.14258e-03
       H  2.75003e-04  2.12929e-03 -3.62544e-04
       O  6.88760e-04 -2.02419e-03 -2.32236e-04
       H -1.17329e-03 -5.41268e-03  3.40100e-03
       H  4.67860e-03 -5.13201e-03  1.96634e-03
       O  2.05688e-04  9.70270e-04  2.46376e-04
       H  4.90476e-03  3.36107e-03  6.26809e-03
       H  1.08126e-03  4.06295e-03  1.25789e-03
       O  1.45699e-03  9.25965e-04  2.18854e-04
       H  7.44711e-04 -1.05619e-03 -2.28957e-03
       H -5.86022e-03  9.92696e-03 -7.45910e-04
       O -5.88619e-04  1.04194e-03  1.54888e-05
       H  5.95289e-03  7.33947e-04  2.84115e-03
       H  2.13486e-03 -4.67565e-03  7.19700e-04
       O -1.13630e-03 -4.78348e-04  7.36019e-04
       H  1.77935e-03 -3.65000e-03 -1.74721e-03
       H  5.34362e-03 -6.14385e-03 -4.07547e-03
       O  7.85337e-04  5.29428e-05 -1.59033e-04
       H -1.94280e-03 -6.13785e-03  3.92736e-03
       H  2.05744e-03  5.76826e-03 -2.04723e-03
       O -2.08406e-03 -4.35435e-04 -9.47591e-04
       H -5.51280e-04  5.60549e-03 -1.49350e-03
       H -1.53525e-04 -3.76005e-04  1.17045e-03
       O -3.01936e-04  4.04791e-04  3.87855e-04
       H -2.89496e-03  7.06984e-03 -2.88814e-03
       H  9.17864e-03  1.55188e-03 -2.99833e-03
       O  9.66771e-04  6.57403e-06 -2.36157e-04
       H  3.07788e-03  2.02060e-03 -3.13348e-03
       H -1.44173e-03  2.90466e-03 -2.98029e-03
       O  4.60028e-04  9.66512e-04 -6.06055e-04
       H -4.64327e-03  4.64716e-03  4.90632e-04
       H -2.73321e-03  7.52955e-04 -2.64809e-03
       O -7.71243e-05  7.42290e-04 -1.11524e-03
       H -8.33869e-03 -2.08278e-03 -1.86835e-03
       H  2.59714e-03 -1.46978e-03 -2.12029e-04
       O  2.06428e-03 -4.08203e-04 -1.53647e-03
       H  2.61435e-03  9.18693e-04 -5.29861e-03
       H -1.25032e-03  3.84413e-03  2.76153e-03
       O  6.61137e-04 -2.96717e-04  6.97056e-04
       H  1.77651e-03 -6.77822e-03  1.01269e-04
       H -2.10179e-03  3.24169e-03  7.33664e-04
       O -1.18254e-04  7.31248e-04 -6.07065e-04
       H  2.28931e-03  5.32804e-03  8.63412e-03
       H  5.86366e-03  5.21962e-04 -1.25853e-03
       O -2.76307e-04 -4.85106e-04 -1.26551e-03
       H  1.32906e-04  1.32434e-03  5.09890e-04
       H -4.76564e-04 -3.12195e-03  1.95739e-03
       O -1.67150e-03 -7.99151e-04 -4.19758e-04
       H  7.22029e-03  1.44056e-03  9.45841e-04
       H -1.31502e-03 -4.95727e-03 -2.45669e-03
       O -1.13064e-04  1.55065e-03  5.97733e-05
       H  1.96876e-03 -2.33628e-03  3.09775e-04
       H -1.68956e-03 -1.68060e-03  1.25985e-03
       O -1.94998e-04  1.00134e-03 -4.60492e-04
       H  5.39084e-03  4.65024e-04 -1.59358e-03
       H -3.25700e-03  1.10369e-03  2.38477e-03
       O  5.40511e-04  3.26047e-05  9.05062e-04
       H -9.45277e-04  1.65346e-03 -4.50015e-03
       H -2.60074e-03 -2.76954e-03 -3.88024e-03
       O -4.34746e-04 -3.02130e-05  1.89563e-03
       H -5.20678e-03  7.51693e-04 -6.29988e-03
       H  2.78225e-03  4.02276e-03 -5.58337e-04
       O -1.19833e-04 -8.40740e-04 -1.38738e-03
       H -9.90890e-04 -7.20946e-04  3.23875e-05
       H -6.47863e-03 -2.02248e-03 -1.38589e-03
       O -8.04021e-04 -1.10550e-04  3.46859e-04
       H  3.59180e-03  2.98656e-03 -4.21377e-03
       H  1.24764e-03 -3.39974e-03 -5.06799e-04
       O -2.91232e-04 -7.95997e-04 -2.29693e-03
       H  4.68518e-03  5.68586e-03 -3.95390e-03
       H -3.27386e-04 -4.80663e-03  6.41814e-03
       O -7.97544e-04 -6.06407e-04  3.70315e-04
       H -1.71639e-03 -5.44256e-03 -1.60050e-03
       H  2.64688e-03 -4.48662e-03  4.35454e-03
       O -6.93161e-04  6.54306e-04  6.13241e-05
       H -3.89412e-05  1.22254e-03  2.00112e-03
       H -4.93784e-03  2.68825e-03 -4.70120e-03
       O -5.45382e-04 -7.34311e-04 -1.13552e-03
       H -4.65795e-03 -9.39996e-04 -5.81333e-03
       H -1.81505e-03 -2.18670e-03 -2.00177e-03
       O  8.33197e-04 -7.68671e-04  1.27539e-03
       H  2.32509e-03 -7.77814e-04  2.85057e-03
       H  5.65435e-03  4.70608e-03 -1.89092e-03
       O -1.03273e-03 -5.77427e-04  1.34898e-03
       H  5.60288e-03 -5.02584e-03  1.55036e-03
       H -9.72069e-04  1.71398e-03 -1.22958e-03
       O  1.64894e-03  1.34380e-05 -8.59293e-05
       H  1.03287e-02  4.52114e-04 -5.03459e-03
       H  2.37363e-03 -3.59683e-03  4.77104e-03
       O -4.33315e-04  1.76397e-04  5.98402e-04
       H  2.18468e-03  1.18668e-03 -4.07858e-03
       H  1.19677e-03 -3.33754e-03 -1.57038e-03
       O  8.18687e-04 -1.16705e-03  5.31804e-04
       H -2.94271e-03  8.69491e-04  1.89390e-03
       H  1.89073e-03  1.84677e-05 -1.11717e-03
       O -8.19717e-04  2.20427e-04  5.31412e-04
       H  6.73499e-03 -1.75116e-03 -1.04858e-03
       H -1.32648e-03 -8.58089e-03 -1.10009e-04
       O  9.21398e-04  1.22101e-03  4.72301e-04
       H  4.06876e-03 -4.88770e-03 -4.39216e-03
       H -3.17702e-03  1.09888e-03 -4.85610e-03
       O -1.41875e-03 -1.64454e-03  1.11839e-03
       H  8.63065e-03  5.55620e-03 -6.33711e-03
       H -3.38823e-03  1.07172e-03 -4.02531e-04
       O  8.50965e-04  2.21820e-03 -2.48786e-04
       H  4.36739e-03 -4.87850e-03  1.24835e-04
       H -2.44368e-03  1.39906e-03  7.07999e-03
       O  1.64566e-03 -5.23635e-04 -3.38110e-04
       H  7.07575e-04 -3.50080e-04  2.82304e-03
       H -1.04586e-03 -3.39858e-03 -1.05192e-03
       O -9.80873e-04 -5.30415e-04 -4.27685e-04
       H -5.42362e-03 -4.91722e-04  5.09301e-03
       H  4.27310e-03  6.29921e-04  6.30370e-04
       O  2.23025e-04 -1.68604e-03  6.05016e-05
       H -7.99026e-04  2.61869e-04 -7.92016e-04
       H  4.09616e-03 -4.52555e-04 -3.19319e-03
       O -7.75864e-04 -7.12766e-04 -1.36948e-03
       H -1.03680e-03 -1.41532e-03  4.30218e-03
       H -8.78414e-03  1.84246e-03 -4.98433e-03
       O  1.83274e-03 -9.66390e-04  1.17984e-03
       H  2.76725e-03  2.51950e-03  6.32430e-04
       H  1.15432e-03 -3.22235e-03  6.49305e-03
       O  5.17604e-04 -6.47742e-04  1.03318e-03
       H  4.92856e-03  3.89822e-03 -5.15312e-03
       H -5.30770e-03 -2.30400e-03 -4.22746e-03
       O  2.24121e-03 -9.22078e-04 -9.95674e-04
       H -2.77608e-03  1.05708e-03  2.22181e-03
       H  7.52877e-03  3.05287e-03 -5.06386e-03
       O -1.98130e-04  1.87132e-04  7.38995e-04
       H -4.28186e-03 -1.17365e-03  4.15993e-03
       H -1.12123e-02 -1.02394e-03  2.90337e-03
       O -1.43469e-05  2.01101e-04  9.81448e-04
       H -4.52796e-03  5.50412e-04  1.37954e-03
       H -1.70048e-03  1.54329e-03  6.95634e-04
       O -2.34885e-04 -9.70835e-04 -2.17442e-04
       H -2.31626e-03 -3.27318e-04  8.28451e-04
       H  6.99265e-04 -1.62824e-03  5.41879e-03
       O  4.02658e-04 -3.85447e-04 -1.12485e-03
       H  1.99021e-03 -8.12080e-03  2.54925e-03
       H -4.76160e-03 -3.34411e-03  8.00027e-04
       O -3.92394e-04  1.08090e-03  6.66186e-06
       H  3.05255e-03 -5.21445e-03 -8.44294e-03
       H  3.80067e-03 -4.19730e-03 -5.13478e-03
       O -5.47229e-04  5.90109e-04  2.52211e-04
       H -2.64787e-03  1.81980e-03  1.21266e-03
       H -3.55399e-03  4.39255e-04  5.11575e-03
       O -1.40383e-03 -5.92867e-04 -6.79035e-04
       H -2.88224e-03  2.81790e-03 -3.77888e-03
       H -2.00682e-03 -8.36032e-04 -1.76394e-03
       O  7.38418e-04 -1.10905e-03 -6.47103e-04
       H  5.89365e-03 -2.64683e-03  3.46375e-03
       H  6.87373e-03  3.97172e-03 -3.96659e-03
       O  1.50926e-04  9.73508e-04  3.95175e-04
       H  4.37916e-04  2.86809e-03  1.38650e-03
       H -1.14157e-03  2.93966e-03 -5.83664e-03
       O  2.00014e-03  8.01328e-04  5.03578e-04
       H  2.43574e-03 -1.16605e-03  4.60159e-03
       H -2.33487e-03  2.79637e-03 -4.35179e-03
       O  8.65202e-04  7.14566e-04 -1.47880e-03
       H -3.54958e-03  1.22212e-04  3.65758e-04
       H  1.86636e-03  2.97712e-05 -3.81670e-03
       O -5.42215e-04 -7.05532e-04  2.91748e-05
       H  5.32446e-03  1.85596e-03  6.92695e-04
       H -3.12214e-03 -2.63875e-03 -3.57835e-03
       O -1.34823e-04  2.87628e-04  1.49867e-03
       H -2.19550e-03  4.00712e-03 -5.64496e-03
       H -6.18200e-04  2.37414e-04 -5.04292e-05
       O  1.67323e-03  1.15907e-03  8.17192e-04
       H -2.52539e-04  2.59865e-03 -1.27692e-03
       H -2.99013e-03 -8.50433e-04 -5.77457e-03
192
# CELL(abcABC):   16.99620    29.43815    27.67315    90.00000    90.00000    90.00000  Step:          30  Bead:      14 velocities{atomic_unit}  cell{atomic_unit}
       O -2.23195e-04 -5.93310e-05  5.84657e-04
       H -2.78426e-03 -2.79550e-03 -3.78433e-03
       H  2.18026e-03 -3.22975e-03 -1.87692e-03
       O  1.69913e-03  2.17272e-04 -5.11719e-04
       H  8.46407e-03  4.09225e-03 -6.75505e-03
       H -2.31811e-03  3.45608e-03 -3.30099e-03
       O -4.09849e-04  7.59067e-04 -8.69693e-04
       H -1.61911e-03  5.27760e-03 -3.42508e-03
       H -1.85634e-03 -3.02415e-03 -6.34164e-03
       O  1.64945e-04  1.61721e-03  4.53854e-04
       H -4.40570e-04 -5.02240e-04  1.69207e-03
       H -5.19607e-03  2.80663e-03  4.40804e-04
       O -7.94996e-04 -1.36014e-03  4.53013e-05
       H -4.97488e-04  5.71581e-03  5.15595e-03
       H  5.02961e-03 -4.05720e-03  3.16410e-04
       O  2.66685e-03  4.71337e-04 -9.30546e-04
       H  1.50825e-03  2.15809e-03  3.73791e-03
       H  9.95647e-04 -5.30401e-03  3.03106e-03
       O -4.58781e-04 -6.11032e-04 -2.13186e-03
       H -2.55913e-03 -2.24654e-03 -5.00404e-03
       H -1.36658e-03  3.34356e-04 -4.02411e-03
       O  1.25724e-05  7.79075e-04  3.79818e-04
       H -1.87903e-04  3.71991e-03  3.49276e-03
       H -7.34715e-03  5.91356e-03 -8.96654e-04
       O -1.06663e-03  3.19858e-04  6.96200e-05
       H -4.68051e-03  1.08803e-03  2.88166e-03
       H  2.97286e-03 -1.40171e-03  4.51177e-03
       O -3.34449e-04 -6.33054e-04  2.33240e-03
       H  1.38623e-03  5.42990e-03 -2.29724e-04
       H -2.69276e-04 -5.84409e-03  2.07364e-05
       O  8.52529e-04 -8.20362e-04 -2.67390e-04
       H -2.57558e-03 -2.30039e-03  5.92324e-03
       H -5.83761e-03 -4.76590e-03 -3.31786e-03
       O -2.75633e-04 -1.05562e-03 -3.18165e-04
       H  3.70744e-03  2.00653e-03 -2.78753e-03