192
# CELL(abcABC):   16.99620    29.43815    27.67315    90.00000    90.00000    90.00000  Step:           0  Bead:      23 positions{atomic_unit}  cell{atomic_unit}
       O -8.22215e+00 -9.94239e+00 -1.31733e+01
       H  7.30664e+00 -1.09711e+01 -1.36322e+01
       H -6.70615e+00 -1.09482e+01 -1.35006e+01
       O -3.97298e+00 -2.58228e+00 -1.31734e+01
       H -5.44033e+00 -3.61131e+00 -1.36317e+01
       H -2.45697e+00 -3.58820e+00 -1.35005e+01
       O -3.95756e+00 -1.25543e+01 -7.82386e-01
       H -3.95604e+00 -1.43515e+01 -2.29143e-01
       H -4.14759e+00 -1.25671e+01 -2.59983e+00
       O -8.20667e+00 -5.19495e+00 -7.82227e-01
       H -8.20527e+00 -6.99211e+00 -2.28860e-01
       H -8.39642e+00 -5.20788e+00 -2.59970e+00
       O -4.52495e+00 -1.21366e+01 -6.25523e+00
       H -6.04104e+00 -1.11308e+01 -6.58223e+00
       H -3.05766e+00 -1.11077e+01 -6.71383e+00
       O  8.22247e+00 -4.77716e+00 -6.25561e+00
       H  6.70639e+00 -3.77128e+00 -6.58235e+00
       H -7.30644e+00 -3.74813e+00 -6.71411e+00
       O  8.20650e+00 -9.52435e+00 -7.70064e+00
       H  8.39647e+00 -9.51190e+00 -9.51809e+00
       H  8.20529e+00 -7.72704e+00 -7.14768e+00
       O -4.54027e+00 -2.16431e+00 -7.70075e+00
       H -4.35006e+00 -2.15153e+00 -9.51816e+00
       H -4.54166e+00 -3.67089e-01 -7.14744e+00
       O -8.22211e+00 -9.94193e+00  6.63469e-01
       H  7.30672e+00 -1.09707e+01  2.04633e-01
       H -6.70609e+00 -1.09478e+01  3.36365e-01
       O -3.97290e+00 -2.58257e+00  6.63081e-01
       H -5.44032e+00 -3.61148e+00  2.04655e-01
       H -2.45688e+00 -3.58848e+00  3.35971e-01
       O -3.95760e+00 -1.25545e+01  1.30538e+01
       H -3.95614e+00 -1.43517e+01  1.36071e+01
       H -4.14757e+00 -1.25673e+01  1.12363e+01
       O -8.20656e+00 -5.19529e+00  1.30545e+01
       H -8.20517e+00 -6.99250e+00  1.36078e+01
       H -8.39634e+00 -5.20824e+00  1.12370e+01
       O -4.52490e+00 -1.21367e+01  7.58138e+00
       H -6.04102e+00 -1.11309e+01  7.25435e+00
       H -3.05757e+00 -1.11078e+01  7.12272e+00
       O  8.22232e+00 -4.77760e+00  7.58065e+00
       H  6.70627e+00 -3.77169e+00  7.25392e+00
       H -7.30657e+00 -3.74862e+00  7.12211e+00
       O  8.20656e+00 -9.52478e+00  6.13597e+00
       H  8.39651e+00 -9.51229e+00  4.31849e+00
       H  8.20527e+00 -7.72747e+00  6.68889e+00
       O -4.54025e+00 -2.16471e+00  6.13560e+00
       H -4.34999e+00 -2.15183e+00  4.31818e+00
       H -4.54168e+00 -3.67533e-01  6.68897e+00
       O -8.22212e+00  4.77724e+00 -1.31733e+01
       H  7.30671e+00  3.74833e+00 -1.36320e+01
       H -6.70607e+00  3.77135e+00 -1.35002e+01
       O -3.97288e+00  1.21369e+01 -1.31734e+01
       H -5.44030e+00  1.11079e+01 -1.36317e+01
       H -2.45689e+00  1.11310e+01 -1.35006e+01
       O -3.95757e+00  2.16435e+00 -7.82368e-01
       H -3.95607e+00  3.67109e-01 -2.29207e-01
       H -4.14756e+00  2.15166e+00 -2.59983e+00
       O -8.20667e+00  9.52420e+00 -7.81868e-01
       H -8.20527e+00  7.72699e+00 -2.28645e-01
       H -8.39652e+00  9.51128e+00 -2.59932e+00
       O -4.52494e+00  2.58246e+00 -6.25501e+00
       H -6.04100e+00  3.58821e+00 -6.58223e+00
       H -3.05758e+00  3.61139e+00 -6.71360e+00
       O  8.22236e+00  9.94146e+00 -6.25587e+00
       H  6.70631e+00  1.09474e+01 -6.58279e+00
       H -7.30653e+00  1.09705e+01 -6.71435e+00
       O  8.20665e+00  5.19438e+00 -7.70097e+00
       H  8.39659e+00  5.20693e+00 -9.51844e+00
       H  8.20533e+00  6.99167e+00 -7.14797e+00
       O -4.54026e+00  1.25545e+01 -7.70081e+00
       H -4.34992e+00  1.25674e+01 -9.51823e+00
       H -4.54169e+00  1.43517e+01 -7.14749e+00
       O -8.22210e+00  4.77691e+00  6.62996e-01
       H  7.30665e+00  3.74808e+00  2.04431e-01
       H -6.70613e+00  3.77091e+00  3.36028e-01
       O -3.97279e+00  1.21369e+01  6.63306e-01
       H -5.44019e+00  1.11079e+01  2.05006e-01
       H -2.45681e+00  1.11309e+01  3.36133e-01
       O -3.95757e+00  2.16479e+00  1.30545e+01
       H -3.95616e+00  3.67575e-01  1.36077e+01
       H -4.14769e+00  2.15200e+00  1.12370e+01
       O -8.20659e+00  9.52434e+00  1.30546e+01
       H -8.20522e+00  7.72713e+00  1.36079e+01
       H -8.39644e+00  9.51145e+00  1.12371e+01
       O -4.52499e+00  2.58228e+00  7.58148e+00
       H -6.04100e+00  3.58814e+00  7.25437e+00
       H -3.05766e+00  3.61126e+00  7.12297e+00
       O  8.22229e+00  9.94203e+00  7.58108e+00
       H  6.70627e+00  1.09480e+01  7.25419e+00
       H -7.30655e+00  1.09710e+01  7.12260e+00
       O  8.20668e+00  5.19493e+00  6.13567e+00
       H  8.39670e+00  5.20749e+00  4.31823e+00
       H  8.20535e+00  6.99219e+00  6.68874e+00
       O -4.54018e+00  1.25546e+01  6.13603e+00
       H -4.34989e+00  1.25674e+01  4.31861e+00
       H -4.54161e+00  1.43518e+01  6.68925e+00
       O  2.75877e-01 -9.94198e+00 -1.31737e+01
       H -1.19147e+00 -1.09709e+01 -1.36323e+01
       H  1.79191e+00 -1.09478e+01 -1.35009e+01
       O  4.52479e+00 -2.58220e+00 -1.31736e+01
       H  3.05750e+00 -3.61120e+00 -1.36322e+01
       H  6.04084e+00 -3.58815e+00 -1.35003e+01
       O  4.54038e+00 -1.25538e+01 -7.82378e-01
       H  4.54166e+00 -1.43510e+01 -2.29173e-01
       H  4.35042e+00 -1.25666e+01 -2.59983e+00
       O  2.91382e-01 -5.19489e+00 -7.82498e-01
       H  2.92775e-01 -6.99208e+00 -2.29179e-01
       H  1.01240e-01 -5.20770e+00 -2.59994e+00
       O  3.97307e+00 -1.21369e+01 -6.25482e+00
       H  2.45707e+00 -1.11310e+01 -6.58187e+00
       H  5.44043e+00 -1.11080e+01 -6.71350e+00
       O -2.76167e-01 -4.77714e+00 -6.25484e+00
       H -1.79215e+00 -3.77120e+00 -6.58193e+00
       H  1.19122e+00 -3.74822e+00 -6.71327e+00
       O -2.91294e-01 -9.52406e+00 -7.70061e+00
       H -1.01153e-01 -9.51128e+00 -9.51804e+00
       H -2.92737e-01 -7.72684e+00 -7.14734e+00
       O  3.95740e+00 -2.16468e+00 -7.70029e+00
       H  4.14711e+00 -2.15178e+00 -9.51779e+00
       H  3.95613e+00 -3.67477e-01 -7.14700e+00
       O  2.75838e-01 -9.94166e+00  6.63265e-01
       H -1.19143e+00 -1.09706e+01  2.04532e-01
       H  1.79197e+00 -1.09474e+01  3.36068e-01
       O  4.52471e+00 -2.58218e+00  6.62891e-01
       H  3.05743e+00 -3.61117e+00  2.04240e-01
       H  6.04080e+00 -3.58806e+00  3.36089e-01
       O  4.54037e+00 -1.25543e+01  1.30539e+01
       H  4.54173e+00 -1.43516e+01  1.36070e+01
       H  4.35050e+00 -1.25670e+01  1.12364e+01
       O  2.91297e-01 -5.19502e+00  1.30541e+01
       H  2.92732e-01 -6.99225e+00  1.36074e+01
       H  1.01206e-01 -5.20786e+00  1.12367e+01
       O  3.97310e+00 -1.21368e+01  7.58177e+00
       H  2.45707e+00 -1.11309e+01  7.25464e+00
       H  5.44051e+00 -1.11080e+01  7.12302e+00
       O -2.76100e-01 -4.77767e+00  7.58136e+00
       H -1.79210e+00 -3.77177e+00  7.25428e+00
       H  1.19125e+00 -3.74871e+00  7.12290e+00
       O -2.91340e-01 -9.52458e+00  6.13593e+00
       H -1.01282e-01 -9.51181e+00  4.31852e+00
       H -2.92762e-01 -7.72734e+00  6.68916e+00
       O  3.95728e+00 -2.16475e+00  6.13602e+00
       H  4.14704e+00 -2.15175e+00  4.31853e+00
       H  3.95603e+00 -3.67615e-01  6.68942e+00
       O  2.75872e-01  4.77775e+00 -1.31735e+01
       H -1.19145e+00  3.74868e+00 -1.36320e+01
       H  1.79192e+00  3.77189e+00 -1.35005e+01
       O  4.52473e+00  1.21369e+01 -1.31737e+01
       H  3.05744e+00  1.11080e+01 -1.36325e+01
       H  6.04082e+00  1.11311e+01 -1.35004e+01
       O  4.54033e+00  2.16480e+00 -7.82502e-01
       H  4.54166e+00  3.67553e-01 -2.29384e-01
       H  4.35052e+00  2.15214e+00 -2.60000e+00
       O  2.91442e-01  9.52423e+00 -7.82681e-01
       H  2.92837e-01  7.72701e+00 -2.29452e-01
       H  1.01299e-01  9.51146e+00 -2.60013e+00
       O  3.97319e+00  2.58230e+00 -6.25496e+00
       H  2.45717e+00  3.58819e+00 -6.58198e+00
       H  5.44056e+00  3.61109e+00 -6.71379e+00
       O -2.76125e-01  9.94167e+00 -6.25515e+00
       H -1.79212e+00  1.09476e+01 -6.58222e+00
       H  1.19126e+00  1.09706e+01 -6.71377e+00
       O -2.91369e-01  5.19475e+00 -7.70046e+00
       H -1.01380e-01  5.20765e+00 -9.51793e+00
       H -2.92793e-01  6.99195e+00 -7.14718e+00
       O  3.95737e+00  1.25543e+01 -7.70076e+00
       H  4.14703e+00  1.25673e+01 -9.51824e+00
       H  3.95606e+00  1.43514e+01 -7.14726e+00
       O  2.75794e-01  4.77734e+00  6.62959e-01
       H -1.19152e+00  3.74832e+00  2.04499e-01
       H  1.79186e+00  3.77147e+00  3.35887e-01
       O  4.52464e+00  1.21373e+01  6.62988e-01
       H  3.05745e+00  1.11082e+01  2.04218e-01
       H  6.04076e+00  1.11314e+01  3.36450e-01
       O  4.54041e+00  2.16499e+00  1.30543e+01
       H  4.54178e+00  3.67749e-01  1.36074e+01
       H  4.35054e+00  2.15228e+00  1.12368e+01
       O  2.91308e-01  9.52457e+00  1.30538e+01
       H  2.92715e-01  7.72735e+00  1.36071e+01
       H  1.01225e-01  9.51181e+00  1.12363e+01
       O  3.97315e+00  2.58235e+00  7.58152e+00
       H  2.45713e+00  3.58829e+00  7.25455e+00
       H  5.44048e+00  3.61122e+00  7.12279e+00
       O -2.76008e-01  9.94202e+00  7.58171e+00
       H -1.79205e+00  1.09479e+01  7.25468e+00
       H  1.19134e+00  1.09710e+01  7.12317e+00
       O -2.91416e-01  5.19510e+00  6.13606e+00
       H -1.01371e-01  5.20795e+00  4.31863e+00
       H -2.92777e-01  6.99228e+00  6.68938e+00
       O  3.95729e+00  1.25546e+01  6.13612e+00
       H  4.14688e+00  1.25676e+01  4.31864e+00
       H  3.95603e+00  1.43518e+01  6.68952e+00
192
# CELL(abcABC):   16.99620    29.43815    27.67315    90.00000    90.00000    90.00000  Step:          10  Bead:      23 positions{atomic_unit}  cell{atomic_unit}
       O -8.21785e+00 -9.95092e+00 -1.31173e+01
       H  7.23966e+00 -1.07845e+01 -1.36722e+01
       H -6.60054e+00 -1.08131e+01 -1.33874e+01
       O -3.89149e+00 -2.53154e+00 -1.31004e+01
       H -5.52591e+00 -3.91932e+00 -1.34566e+01
       H -2.25096e+00 -3.58871e+00 -1.35677e+01
       O -3.91019e+00 -1.25668e+01 -8.31986e-01
       H -3.78000e+00 -1.43485e+01 -2.59292e-01
       H -3.94436e+00 -1.27320e+01 -2.62282e+00
       O -8.18187e+00 -5.23498e+00 -7.73550e-01
       H -8.18762e+00 -6.69045e+00  2.35174e-03
       H -8.34056e+00 -5.22897e+00 -2.46364e+00
       O -4.52814e+00 -1.21703e+01 -6.23070e+00
       H -5.77840e+00 -1.08881e+01 -6.97668e+00
       H -2.92895e+00 -1.12351e+01 -6.62472e+00
       O  8.25981e+00 -4.73810e+00 -6.32026e+00
       H  6.70429e+00 -3.91149e+00 -6.43537e+00
       H -7.21479e+00 -3.66044e+00 -6.80188e+00
       O  8.21258e+00 -9.56881e+00 -7.69655e+00
       H  8.49369e+00 -9.48962e+00 -9.67924e+00
       H  8.00160e+00 -7.76835e+00 -6.92403e+00
       O -4.51887e+00 -2.15800e+00 -7.65861e+00
       H -4.20056e+00 -1.99178e+00 -9.50583e+00
       H -4.57820e+00 -3.67744e-01 -7.11416e+00
       O -8.25182e+00 -9.84374e+00  6.62004e-01
       H  7.45143e+00 -1.12097e+01  2.42080e-01
       H -6.74499e+00 -1.06725e+01  3.72780e-01
       O -3.89557e+00 -2.51426e+00  6.71867e-01
       H -5.51672e+00 -3.59871e+00  2.35680e-01
       H -2.53398e+00 -3.67504e+00  5.15933e-01
       O -4.00858e+00 -1.25333e+01  1.30180e+01
       H -4.17897e+00 -1.44370e+01  1.37415e+01
       H -4.11642e+00 -1.26162e+01  1.11572e+01
       O -8.21559e+00 -5.13350e+00  1.30879e+01
       H -7.91792e+00 -7.11474e+00  1.35180e+01
       H -8.46882e+00 -5.22985e+00  1.11456e+01
       O -4.55899e+00 -1.21472e+01  7.55780e+00
       H -6.38027e+00 -1.09995e+01  7.14092e+00
       H -3.35933e+00 -1.10663e+01  7.07055e+00
       O  8.22084e+00 -4.73036e+00  7.53324e+00
       H  6.41879e+00 -3.63565e+00  7.28995e+00
       H -7.32320e+00 -3.69635e+00  7.02028e+00
       O  8.17788e+00 -9.50888e+00  6.19390e+00
       H  8.34960e+00 -9.56153e+00  4.40196e+00
       H  8.37198e+00 -7.87325e+00  6.67367e+00
       O -4.45848e+00 -2.10114e+00  6.15615e+00
       H -4.25162e+00 -2.26758e+00  4.48658e+00
       H -4.74781e+00 -4.51653e-01  6.50416e+00
       O -8.24564e+00  4.76961e+00 -1.31510e+01
       H  7.31232e+00  3.62912e+00 -1.35721e+01
       H -6.80939e+00  3.49040e+00 -1.35300e+01
       O -4.04507e+00  1.21693e+01 -1.31500e+01
       H -5.51867e+00  1.13225e+01 -1.35785e+01
       H -2.31341e+00  1.12885e+01 -1.34412e+01
       O -3.93148e+00  2.20071e+00 -8.34960e-01
       H -3.89347e+00  2.31885e-01 -3.41484e-01
       H -4.31436e+00  2.38739e+00 -2.53994e+00
       O -8.21118e+00  9.43093e+00 -7.86144e-01
       H -8.12942e+00  7.65311e+00 -1.23336e-01
       H -8.37959e+00  9.27828e+00 -2.51264e+00
       O -4.57281e+00  2.63799e+00 -6.25440e+00
       H -5.99676e+00  3.63327e+00 -6.61597e+00
       H -3.20678e+00  3.89300e+00 -6.50322e+00
       O  8.13379e+00  9.89259e+00 -6.30018e+00
       H  6.69838e+00  1.09374e+01 -6.65745e+00
       H -7.11891e+00  1.11516e+01 -6.88316e+00
       O  8.23166e+00  5.22269e+00 -7.63890e+00
       H  8.51675e+00  5.33229e+00 -9.50663e+00
       H  8.35798e+00  6.83697e+00 -6.69665e+00
       O -4.49153e+00  1.26345e+01 -7.70694e+00
       H -4.26975e+00  1.25549e+01 -9.48788e+00
       H -4.81372e+00  1.44081e+01 -6.94794e+00
       O -8.22848e+00  4.73722e+00  6.56151e-01
       H  7.23597e+00  3.60076e+00  1.79028e-01
       H -6.79991e+00  3.49655e+00  2.51557e-01
       O -3.92852e+00  1.21269e+01  6.26910e-01
       H -5.70429e+00  1.10748e+01  2.81338e-01
       H -2.53778e+00  1.10269e+01  4.22127e-01
       O -3.98298e+00  2.18642e+00  1.29890e+01
       H -3.90732e+00  2.57922e-01  1.37319e+01
       H -4.44467e+00  1.85686e+00  1.12860e+01
       O -8.20484e+00  9.45602e+00  1.30831e+01
       H -8.35889e+00  7.58418e+00  1.36291e+01
       H -8.21917e+00  9.40313e+00  1.09898e+01
       O -4.53083e+00  2.58467e+00  7.65346e+00
       H -6.08234e+00  3.27636e+00  7.52678e+00
       H -2.99911e+00  3.56306e+00  7.02094e+00
       O  8.14932e+00  1.00048e+01  7.58276e+00
       H  6.71399e+00  1.11485e+01  7.17110e+00
       H -7.33409e+00  1.11338e+01  7.06973e+00
       O  8.20389e+00  5.11125e+00  6.15954e+00
       H  8.37171e+00  5.51489e+00  4.26443e+00
       H  8.05996e+00  7.02288e+00  6.68735e+00
       O -4.58017e+00  1.25718e+01  6.13736e+00
       H -4.34337e+00  1.24313e+01  4.24489e+00
       H -4.32118e+00  1.43956e+01  6.59145e+00
       O  2.73630e-01 -9.83529e+00 -1.32552e+01
       H -1.36230e+00 -1.09536e+01 -1.37709e+01
       H  1.67441e+00 -1.09545e+01 -1.36627e+01
       O  4.55113e+00 -2.64938e+00 -1.32405e+01
       H  3.36982e+00 -3.50346e+00 -1.37518e+01
       H  6.14330e+00 -3.59753e+00 -1.36088e+01
       O  4.49043e+00 -1.25602e+01 -8.38160e-01
       H  4.61994e+00 -1.41981e+01 -2.36847e-01
       H  4.21957e+00 -1.22978e+01 -2.90307e+00
       O  3.58828e-01 -5.14096e+00 -7.82052e-01
       H  2.18196e-01 -7.14156e+00 -1.76008e-01
       H -6.06088e-02 -5.07967e+00 -2.58698e+00
       O  4.00329e+00 -1.21335e+01 -6.25374e+00
       H  2.47026e+00 -1.11931e+01 -6.46148e+00
       H  5.58186e+00 -1.09069e+01 -6.68194e+00
       O -2.63179e-01 -4.76541e+00 -6.29869e+00
       H -2.10300e+00 -3.90701e+00 -6.58793e+00
       H  1.25323e+00 -3.73787e+00 -7.05470e+00
       O -1.74458e-01 -9.47794e+00 -7.73608e+00
       H -3.29673e-01 -9.37023e+00 -9.71259e+00
       H -1.41328e-01 -7.52969e+00 -7.40143e+00
       O  3.97329e+00 -2.17647e+00 -7.70497e+00
       H  4.00290e+00 -2.05447e+00 -9.40808e+00
       H  4.02386e+00 -4.48240e-02 -7.09255e+00
       O  3.14681e-01 -9.90415e+00  5.12696e-01
       H -1.02208e+00 -1.09679e+01 -1.75062e-01
       H  1.61985e+00 -1.08831e+01  4.24697e-01
       O  4.53724e+00 -2.64261e+00  6.31627e-01
       H  3.23725e+00 -3.72023e+00  1.51377e-01
       H  6.06584e+00 -3.76699e+00  3.73039e-01
       O  4.52229e+00 -1.25174e+01  1.30592e+01
       H  4.45232e+00 -1.43226e+01  1.35027e+01
       H  4.15762e+00 -1.26338e+01  1.12589e+01
       O  3.02706e-01 -5.24622e+00  1.30900e+01
       H  3.18311e-01 -7.10066e+00  1.37148e+01
       H  2.00478e-01 -5.40375e+00  1.11975e+01
       O  3.94152e+00 -1.22023e+01  7.57032e+00
       H  2.69282e+00 -1.10709e+01  7.28189e+00
       H  5.58440e+00 -1.10194e+01  7.20318e+00
       O -2.87626e-01 -4.78202e+00  7.52743e+00
       H -1.82723e+00 -3.91849e+00  7.16066e+00
       H  1.45754e+00 -3.91331e+00  7.32060e+00
       O -2.71843e-01 -9.57080e+00  6.13684e+00
       H -3.05323e-01 -9.72335e+00  4.41639e+00
       H -1.56393e-01 -7.68607e+00  6.50947e+00
       O  3.91089e+00 -2.16860e+00  6.11434e+00
       H  4.09578e+00 -2.45256e+00  4.29154e+00
       H  3.91613e+00 -1.47529e-01  6.84899e+00
       O  3.08759e-01  4.81772e+00 -1.31275e+01
       H -1.09077e+00  3.90248e+00 -1.37139e+01
       H  1.74591e+00  3.65051e+00 -1.36295e+01
       O  4.52041e+00  1.21725e+01 -1.32169e+01
       H  3.36431e+00  1.09642e+01 -1.36138e+01
       H  6.17308e+00  1.11955e+01 -1.34064e+01
       O  4.58933e+00  2.14716e+00 -7.26348e-01
       H  4.76308e+00  4.21430e-01 -2.05828e-01
       H  4.24264e+00  2.27090e+00 -2.38566e+00
       O  2.28062e-01  9.56800e+00 -7.24913e-01
       H  1.82708e-01  7.69401e+00 -2.87798e-01
       H  2.00614e-01  9.53504e+00 -2.71140e+00
       O  3.94990e+00  2.59042e+00 -6.24990e+00
       H  2.45672e+00  3.59840e+00 -6.77728e+00
       H  5.48355e+00  3.56450e+00 -6.78865e+00
       O -2.67810e-01  9.97648e+00 -6.20016e+00
       H -1.74888e+00  1.09556e+01 -6.37425e+00
       H  1.04371e+00  1.11112e+01 -6.75556e+00
       O -3.12719e-01  5.16440e+00 -7.65582e+00
       H  1.71484e-02  5.17372e+00 -9.44857e+00
       H -2.91304e-01  7.21147e+00 -7.20935e+00
       O  3.95622e+00  1.26004e+01 -7.73276e+00
       H  4.52298e+00  1.26868e+01 -9.56299e+00
       H  3.88862e+00  1.42582e+01 -7.32976e+00
       O  3.08938e-01  4.80718e+00  6.49699e-01
       H -1.11689e+00  3.94032e+00  3.70385e-01
       H  1.77487e+00  3.55400e+00  8.18113e-01
       O  4.52967e+00  1.20501e+01  6.29708e-01
       H  2.77254e+00  1.09895e+01  2.53487e-01
       H  6.07731e+00  1.11263e+01  1.24609e-01
       O  4.50376e+00  2.22797e+00  1.30867e+01
       H  4.66210e+00  2.66835e-01  1.35966e+01
       H  4.40525e+00  2.36777e+00  1.13259e+01
       O  2.83726e-01  9.56156e+00  1.30706e+01
       H  4.65343e-01  7.53816e+00  1.38644e+01
       H  3.68655e-01  9.65525e+00  1.12980e+01
       O  3.97813e+00  2.57191e+00  7.58560e+00
       H  2.67208e+00  3.55136e+00  7.36192e+00
       H  5.38443e+00  3.62678e+00  7.21005e+00
       O -3.65315e-01  9.95225e+00  7.59516e+00
       H -1.75599e+00  1.09792e+01  7.26526e+00
       H  1.21230e+00  1.11613e+01  7.35931e+00
       O -3.01405e-01  5.23795e+00  6.19706e+00
       H -1.32038e-02  5.51710e+00  4.50456e+00
       H -4.54833e-01  6.98182e+00  6.74392e+00
       O  3.93030e+00  1.25909e+01  6.09215e+00
       H  4.04391e+00  1.26352e+01  4.08576e+00
       H  3.77012e+00  1.43858e+01  6.68549e+00
192
# CELL(abcABC):   16.99620    29.43815    27.67315    90.00000    90.00000    90.00000  Step:          20  Bead:      23 positions{atomic_unit}  cell{atomic_unit}
       O -8.26657e+00 -9.97642e+00 -1.30654e+01
       H  7.14695e+00 -1.10272e+01 -1.31740e+01
       H -6.71108e+00 -1.05818e+01 -1.36326e+01
       O -3.93334e+00 -2.55575e+00 -1.31300e+01
       H -5.42519e+00 -3.83282e+00 -1.34963e+01
       H -2.35433e+00 -3.38132e+00 -1.38060e+01
       O -3.90124e+00 -1.24704e+01 -8.27130e-01
       H -3.91491e+00 -1.43178e+01 -4.34342e-01
       H -4.11408e+00 -1.26558e+01 -2.67584e+00
       O -8.22708e+00 -5.23001e+00 -6.94661e-01
       H -8.24916e+00 -6.98883e+00 -9.70708e-02
       H -8.73171e+00 -5.20736e+00 -2.60644e+00
       O -4.56149e+00 -1.22057e+01 -6.22159e+00
       H -6.02913e+00 -1.09963e+01 -6.96898e+00
       H -2.82726e+00 -1.12715e+01 -6.72842e+00
       O  8.30616e+00 -4.67747e+00 -6.36348e+00
       H  6.77278e+00 -3.81874e+00 -6.64507e+00
       H -7.52707e+00 -3.50243e+00 -7.03832e+00
       O  8.18284e+00 -9.47775e+00 -7.67520e+00
       H  8.46586e+00 -9.40346e+00 -9.63152e+00
       H  7.79454e+00 -7.75622e+00 -6.89564e+00
       O -4.48252e+00 -2.16728e+00 -7.64605e+00
       H -4.00170e+00 -2.22422e+00 -9.30761e+00
       H -4.59153e+00 -6.35455e-01 -7.12106e+00
       O -8.33380e+00 -9.89293e+00  6.62949e-01
       H  7.34332e+00 -1.11345e+01  2.26662e-01
       H -6.83480e+00 -1.09908e+01 -3.05919e-02
       O -3.83836e+00 -2.53910e+00  7.28564e-01
       H -5.05943e+00 -3.93113e+00  5.88979e-01
       H -2.54517e+00 -3.82838e+00  4.82149e-01
       O -3.98876e+00 -1.25186e+01  1.30404e+01
       H -4.09332e+00 -1.43457e+01  1.36249e+01
       H -4.08975e+00 -1.26610e+01  1.13815e+01
       O -8.24601e+00 -5.16238e+00  1.30935e+01
       H -7.99230e+00 -6.97341e+00  1.34851e+01
       H -8.38415e+00 -5.10109e+00  1.09505e+01
       O -4.56158e+00 -1.21993e+01  7.59786e+00
       H -6.05646e+00 -1.09057e+01  7.07826e+00
       H -3.34795e+00 -1.07449e+01  7.18152e+00
       O  8.21836e+00 -4.79058e+00  7.51180e+00
       H  6.52192e+00 -3.79612e+00  7.33136e+00
       H -7.20770e+00 -3.48277e+00  7.19481e+00
       O  8.22792e+00 -9.54913e+00  6.15552e+00
       H  8.40944e+00 -9.60139e+00  4.42202e+00
       H  8.70511e+00 -7.93189e+00  6.83213e+00
       O -4.48042e+00 -2.07900e+00  6.11553e+00
       H -4.31271e+00 -2.45430e+00  4.11487e+00
       H -4.57236e+00 -2.09604e-01  6.59484e+00
       O -8.23590e+00  4.72195e+00 -1.32631e+01
       H  7.14169e+00  3.69190e+00 -1.33950e+01
       H -6.90732e+00  3.54717e+00 -1.35909e+01
       O -4.10584e+00  1.22329e+01 -1.31566e+01
       H -5.83122e+00  1.12337e+01 -1.34295e+01
       H -2.34367e+00  1.13232e+01 -1.34236e+01
       O -3.89826e+00  2.19163e+00 -8.46087e-01
       H -3.99265e+00  2.14416e-01 -5.07289e-01
       H -4.08243e+00  2.29988e+00 -2.66158e+00
       O -8.21244e+00  9.49073e+00 -7.89293e-01
       H -8.00441e+00  7.83166e+00  1.45990e-01
       H -8.49647e+00  9.24668e+00 -2.38324e+00
       O -4.54660e+00  2.58644e+00 -6.24223e+00
       H -6.08212e+00  3.36803e+00 -6.52974e+00
       H -3.07192e+00  3.98941e+00 -6.64183e+00
       O  8.13594e+00  9.85622e+00 -6.28849e+00
       H  6.34817e+00  1.06751e+01 -6.76732e+00
       H -7.35773e+00  1.09659e+01 -6.78207e+00
       O  8.26010e+00  5.31192e+00 -7.73853e+00
       H  8.56720e+00  5.25529e+00 -9.63568e+00
       H  8.30686e+00  7.08220e+00 -6.67881e+00
       O -4.49928e+00  1.25949e+01 -7.77439e+00
       H -4.45505e+00  1.24519e+01 -9.59475e+00
       H -4.88504e+00  1.40643e+01 -7.19512e+00
       O -8.18837e+00  4.67828e+00  6.38390e-01
       H  7.03437e+00  3.76192e+00  2.34693e-01
       H -6.78889e+00  3.31028e+00  3.34340e-01
       O -3.95819e+00  1.20871e+01  5.88439e-01
       H -5.38220e+00  1.11098e+01  3.71738e-01
       H -2.54790e+00  1.10042e+01  4.28579e-01
       O -3.96893e+00  2.14227e+00  1.29995e+01
       H -3.79616e+00 -2.48373e-02  1.35081e+01
       H -4.26025e+00  1.97745e+00  1.11984e+01
       O -8.22189e+00  9.51377e+00  1.30570e+01
       H -8.45463e+00  7.47500e+00  1.30885e+01
       H -8.59593e+00  9.61285e+00  1.12893e+01
       O -4.55276e+00  2.59890e+00  7.54348e+00
       H -6.37284e+00  3.36824e+00  7.52106e+00
       H -3.01369e+00  3.52584e+00  6.92181e+00
       O  8.17579e+00  1.00294e+01  7.55513e+00
       H  6.62028e+00  1.13842e+01  7.10632e+00
       H -7.33510e+00  1.10743e+01  7.14587e+00
       O  8.22260e+00  5.15016e+00  6.20979e+00
       H  8.57952e+00  5.31485e+00  4.31247e+00
       H  8.10406e+00  7.03358e+00  7.00578e+00
       O -4.52786e+00  1.25223e+01  6.15809e+00
       H -4.41633e+00  1.24326e+01  4.12631e+00
       H -4.46427e+00  1.43587e+01  6.58296e+00
       O  2.54848e-01 -9.79202e+00 -1.32718e+01
       H -1.49584e+00 -1.05879e+01 -1.34195e+01
       H  1.52202e+00 -1.08798e+01 -1.30429e+01
       O  4.59968e+00 -2.62294e+00 -1.32214e+01
       H  3.21505e+00 -3.84447e+00 -1.41967e+01
       H  6.35729e+00 -3.54636e+00 -1.36238e+01
       O  4.56858e+00 -1.26128e+01 -8.66886e-01
       H  4.65977e+00 -1.44305e+01 -2.51620e-01
       H  4.56312e+00 -1.21586e+01 -2.59646e+00
       O  3.76424e-01 -5.20226e+00 -7.66564e-01
       H  5.36085e-01 -6.91267e+00 -4.04266e-01
       H -1.37209e-01 -5.00534e+00 -2.61113e+00
       O  3.98004e+00 -1.21250e+01 -6.21516e+00
       H  2.51477e+00 -1.10779e+01 -6.40418e+00
       H  5.50222e+00 -1.09848e+01 -6.56829e+00
       O -3.74142e-01 -4.74372e+00 -6.27833e+00
       H -1.99405e+00 -3.73956e+00 -6.62370e+00
       H  1.02128e+00 -3.55805e+00 -6.84522e+00
       O -1.84732e-01 -9.44339e+00 -7.66610e+00
       H -1.67731e-01 -9.57420e+00 -9.68089e+00
       H -1.58962e-01 -7.52478e+00 -7.38450e+00
       O  4.01190e+00 -2.19303e+00 -7.67922e+00
       H  3.93699e+00 -2.07910e+00 -9.54417e+00
       H  4.25893e+00 -5.79344e-02 -7.26641e+00
       O  2.73607e-01 -9.87209e+00  5.29188e-01
       H -1.09753e+00 -1.10768e+01 -4.24336e-02
       H  1.92551e+00 -1.09659e+01  6.30198e-01
       O  4.60270e+00 -2.66465e+00  4.89224e-01
       H  3.13820e+00 -3.76779e+00  2.84503e-01
       H  6.28106e+00 -3.85779e+00  4.60454e-01
       O  4.57462e+00 -1.25198e+01  1.29994e+01
       H  4.48689e+00 -1.43551e+01  1.35360e+01
       H  4.27000e+00 -1.23093e+01  1.11878e+01
       O  3.10956e-01 -5.28480e+00  1.31300e+01
       H  2.07281e-01 -7.01107e+00  1.35441e+01
       H  2.88150e-01 -5.12520e+00  1.13718e+01
       O  3.86285e+00 -1.21361e+01  7.57351e+00
       H  2.42606e+00 -1.11030e+01  7.18320e+00
       H  5.28533e+00 -1.09236e+01  7.15923e+00
       O -2.57498e-01 -4.79452e+00  7.60138e+00
       H -1.81279e+00 -3.49740e+00  7.39063e+00
       H  1.14603e+00 -3.59418e+00  7.27551e+00
       O -3.09683e-01 -9.61338e+00  6.12804e+00
       H -1.74311e-01 -9.59523e+00  4.06398e+00
       H -3.74977e-01 -7.77666e+00  6.48436e+00
       O  3.98067e+00 -2.18800e+00  6.16789e+00
       H  4.20189e+00 -2.58746e+00  4.10512e+00
       H  3.84955e+00 -5.41151e-01  6.55520e+00
       O  2.78243e-01  4.80245e+00 -1.30667e+01
       H -1.14868e+00  3.95626e+00 -1.38946e+01
       H  1.80755e+00  3.97026e+00 -1.38257e+01
       O  4.46116e+00  1.21133e+01 -1.31839e+01
       H  2.95480e+00  1.09552e+01 -1.35166e+01
       H  6.13094e+00  1.11281e+01 -1.33642e+01
       O  4.60835e+00  2.10397e+00 -7.09534e-01
       H  4.41597e+00  4.28557e-01 -2.95000e-01
       H  4.35436e+00  2.69153e+00 -2.58486e+00
       O  1.78890e-01  9.53753e+00 -7.57543e-01
       H  3.78570e-01  7.76818e+00 -3.37782e-01
       H  2.95547e-01  9.31998e+00 -2.53925e+00
       O  3.92421e+00  2.60319e+00 -6.11849e+00
       H  2.22983e+00  3.41284e+00 -6.73755e+00
       H  5.47043e+00  3.23009e+00 -6.63538e+00
       O -1.80281e-01  9.94963e+00 -6.25900e+00
       H -1.84393e+00  1.07065e+01 -6.44974e+00
       H  1.06078e+00  1.11054e+01 -6.46085e+00
       O -3.39307e-01  5.16694e+00 -7.64511e+00
       H -6.82711e-02  5.23130e+00 -9.39355e+00
       H -3.38458e-01  7.12996e+00 -7.29831e+00
       O  3.99588e+00  1.25717e+01 -7.75238e+00
       H  4.50561e+00  1.26443e+01 -9.49625e+00
       H  4.00347e+00  1.43747e+01 -7.26425e+00
       O  2.82813e-01  4.79808e+00  6.89715e-01
       H -1.09164e+00  3.89307e+00  3.25320e-01
       H  1.79755e+00  3.39759e+00  6.96056e-01
       O  4.55981e+00  1.20593e+01  6.81402e-01
       H  3.11927e+00  1.12553e+01  4.09055e-01
       H  6.20279e+00  1.12035e+01  4.00818e-01
       O  4.51362e+00  2.19021e+00  1.30400e+01
       H  4.61717e+00  1.17192e-01  1.33247e+01
       H  4.34013e+00  2.27486e+00  1.13818e+01
       O  2.14118e-01  9.56291e+00  1.30402e+01
       H  8.41360e-01  7.76229e+00  1.40176e+01
       H  4.67718e-01  9.64858e+00  1.11180e+01
       O  4.04320e+00  2.54689e+00  7.65430e+00
       H  2.49305e+00  3.45569e+00  7.24020e+00
       H  5.33476e+00  3.50191e+00  6.81986e+00
       O -3.36967e-01  9.85746e+00  7.59160e+00
       H -1.53515e+00  1.12521e+01  7.50338e+00
       H  1.03182e+00  1.07676e+01  7.15376e+00
       O -2.70735e-01  5.28860e+00  6.16903e+00
       H -2.54562e-01  5.41765e+00  4.32931e+00
       H -2.99239e-01  6.92716e+00  6.69750e+00
       O  3.92056e+00  1.24912e+01  6.05642e+00
       H  4.10801e+00  1.28818e+01  4.13010e+00
       H  3.84517e+00  1.41362e+01  6.81105e+00
192
# CELL(abcABC):   16.99620    29.43815    27.67315    90.00000    90.00000    90.00000  Step:          30  Bead:      23 positions{atomic_unit}  cell{atomic_unit}
       O -8.21333e+00 -1.00254e+01 -1.30948e+01
       H  7.16833e+00 -1.09972e+01 -1.31867e+01
       H -6.69443e+00 -1.07681e+01 -1.37942e+01
       O -3.91033e+00 -2.51924e+00 -1.30800e+01
       H -5.26042e+00 -3.73286e+00 -1.35063e+01
       H -2.24187e+00 -3.27442e+00 -1.36792e+01
       O -3.98757e+00 -1.24893e+01 -8.13065e-01
       H -4.03764e+00 -1.44303e+01 -3.23651e-01
       H -4.22468e+00 -1.24867e+01 -2.55894e+00
       O -8.21487e+00 -5.21927e+00 -7.19027e-01
       H -8.13462e+00 -6.98204e+00 -1.30784e-01
       H -8.79557e+00 -5.32568e+00 -2.76961e+00
       O -4.57596e+00 -1.21054e+01 -6.19900e+00
       H -5.65293e+00 -1.09171e+01 -6.87516e+00
       H -2.92461e+00 -1.11056e+01 -6.54566e+00
       O  8.31894e+00 -4.67709e+00 -6.38217e+00
       H  6.58245e+00 -3.83202e+00 -6.59577e+00
       H -7.53544e+00 -3.44886e+00 -6.80446e+00
       O  8.23361e+00 -9.46483e+00 -7.70739e+00
       H  8.38087e+00 -9.25905e+00 -9.49453e+00
       H  7.60400e+00 -7.79797e+00 -6.90364e+00
       O -4.47383e+00 -2.16570e+00 -7.61655e+00
       H -3.87453e+00 -2.19302e+00 -9.47972e+00
       H -4.97106e+00 -3.87879e-01 -6.93698e+00
       O -8.33269e+00 -9.83559e+00  6.68915e-01
       H  7.46229e+00 -1.13133e+01  3.82294e-01
       H -6.90265e+00 -1.08995e+01 -8.76173e-02
       O -3.93326e+00 -2.57889e+00  7.63604e-01
       H -5.19151e+00 -4.00292e+00  7.54301e-01
       H -2.79072e+00 -3.73856e+00  2.88371e-01
       O -3.96041e+00 -1.25561e+01  1.31088e+01
       H -4.31217e+00 -1.43782e+01  1.35403e+01
       H -4.05225e+00 -1.25306e+01  1.14118e+01
       O -8.23574e+00 -5.09258e+00  1.30687e+01
       H -8.07492e+00 -6.88107e+00  1.38304e+01