192
# CELL(abcABC):   16.99620    29.43815    27.67315    90.00000    90.00000    90.00000  Step:           0  Bead:      28 positions{atomic_unit}  cell{atomic_unit}
       O -8.22215e+00 -9.94239e+00 -1.31733e+01
       H  7.30664e+00 -1.09711e+01 -1.36322e+01
       H -6.70615e+00 -1.09482e+01 -1.35006e+01
       O -3.97298e+00 -2.58228e+00 -1.31734e+01
       H -5.44033e+00 -3.61131e+00 -1.36317e+01
       H -2.45697e+00 -3.58820e+00 -1.35005e+01
       O -3.95756e+00 -1.25543e+01 -7.82386e-01
       H -3.95604e+00 -1.43515e+01 -2.29143e-01
       H -4.14759e+00 -1.25671e+01 -2.59983e+00
       O -8.20667e+00 -5.19495e+00 -7.82227e-01
       H -8.20527e+00 -6.99211e+00 -2.28860e-01
       H -8.39642e+00 -5.20788e+00 -2.59970e+00
       O -4.52495e+00 -1.21366e+01 -6.25523e+00
       H -6.04104e+00 -1.11308e+01 -6.58223e+00
       H -3.05766e+00 -1.11077e+01 -6.71383e+00
       O  8.22247e+00 -4.77716e+00 -6.25561e+00
       H  6.70639e+00 -3.77128e+00 -6.58235e+00
       H -7.30644e+00 -3.74813e+00 -6.71411e+00
       O  8.20650e+00 -9.52435e+00 -7.70064e+00
       H  8.39647e+00 -9.51190e+00 -9.51809e+00
       H  8.20529e+00 -7.72704e+00 -7.14768e+00
       O -4.54027e+00 -2.16431e+00 -7.70075e+00
       H -4.35006e+00 -2.15153e+00 -9.51816e+00
       H -4.54166e+00 -3.67089e-01 -7.14744e+00
       O -8.22211e+00 -9.94193e+00  6.63469e-01
       H  7.30672e+00 -1.09707e+01  2.04633e-01
       H -6.70609e+00 -1.09478e+01  3.36365e-01
       O -3.97290e+00 -2.58257e+00  6.63081e-01
       H -5.44032e+00 -3.61148e+00  2.04655e-01
       H -2.45688e+00 -3.58848e+00  3.35971e-01
       O -3.95760e+00 -1.25545e+01  1.30538e+01
       H -3.95614e+00 -1.43517e+01  1.36071e+01
       H -4.14757e+00 -1.25673e+01  1.12363e+01
       O -8.20656e+00 -5.19529e+00  1.30545e+01
       H -8.20517e+00 -6.99250e+00  1.36078e+01
       H -8.39634e+00 -5.20824e+00  1.12370e+01
       O -4.52490e+00 -1.21367e+01  7.58138e+00
       H -6.04102e+00 -1.11309e+01  7.25435e+00
       H -3.05757e+00 -1.11078e+01  7.12272e+00
       O  8.22232e+00 -4.77760e+00  7.58065e+00
       H  6.70627e+00 -3.77169e+00  7.25392e+00
       H -7.30657e+00 -3.74862e+00  7.12211e+00
       O  8.20656e+00 -9.52478e+00  6.13597e+00
       H  8.39651e+00 -9.51229e+00  4.31849e+00
       H  8.20527e+00 -7.72747e+00  6.68889e+00
       O -4.54025e+00 -2.16471e+00  6.13560e+00
       H -4.34999e+00 -2.15183e+00  4.31818e+00
       H -4.54168e+00 -3.67533e-01  6.68897e+00
       O -8.22212e+00  4.77724e+00 -1.31733e+01
       H  7.30671e+00  3.74833e+00 -1.36320e+01
       H -6.70607e+00  3.77135e+00 -1.35002e+01
       O -3.97288e+00  1.21369e+01 -1.31734e+01
       H -5.44030e+00  1.11079e+01 -1.36317e+01
       H -2.45689e+00  1.11310e+01 -1.35006e+01
       O -3.95757e+00  2.16435e+00 -7.82368e-01
       H -3.95607e+00  3.67109e-01 -2.29207e-01
       H -4.14756e+00  2.15166e+00 -2.59983e+00
       O -8.20667e+00  9.52420e+00 -7.81868e-01
       H -8.20527e+00  7.72699e+00 -2.28645e-01
       H -8.39652e+00  9.51128e+00 -2.59932e+00
       O -4.52494e+00  2.58246e+00 -6.25501e+00
       H -6.04100e+00  3.58821e+00 -6.58223e+00
       H -3.05758e+00  3.61139e+00 -6.71360e+00
       O  8.22236e+00  9.94146e+00 -6.25587e+00
       H  6.70631e+00  1.09474e+01 -6.58279e+00
       H -7.30653e+00  1.09705e+01 -6.71435e+00
       O  8.20665e+00  5.19438e+00 -7.70097e+00
       H  8.39659e+00  5.20693e+00 -9.51844e+00
       H  8.20533e+00  6.99167e+00 -7.14797e+00
       O -4.54026e+00  1.25545e+01 -7.70081e+00
       H -4.34992e+00  1.25674e+01 -9.51823e+00
       H -4.54169e+00  1.43517e+01 -7.14749e+00
       O -8.22210e+00  4.77691e+00  6.62996e-01
       H  7.30665e+00  3.74808e+00  2.04431e-01
       H -6.70613e+00  3.77091e+00  3.36028e-01
       O -3.97279e+00  1.21369e+01  6.63306e-01
       H -5.44019e+00  1.11079e+01  2.05006e-01
       H -2.45681e+00  1.11309e+01  3.36133e-01
       O -3.95757e+00  2.16479e+00  1.30545e+01
       H -3.95616e+00  3.67575e-01  1.36077e+01
       H -4.14769e+00  2.15200e+00  1.12370e+01
       O -8.20659e+00  9.52434e+00  1.30546e+01
       H -8.20522e+00  7.72713e+00  1.36079e+01
       H -8.39644e+00  9.51145e+00  1.12371e+01
       O -4.52499e+00  2.58228e+00  7.58148e+00
       H -6.04100e+00  3.58814e+00  7.25437e+00
       H -3.05766e+00  3.61126e+00  7.12297e+00
       O  8.22229e+00  9.94203e+00  7.58108e+00
       H  6.70627e+00  1.09480e+01  7.25419e+00
       H -7.30655e+00  1.09710e+01  7.12260e+00
       O  8.20668e+00  5.19493e+00  6.13567e+00
       H  8.39670e+00  5.20749e+00  4.31823e+00
       H  8.20535e+00  6.99219e+00  6.68874e+00
       O -4.54018e+00  1.25546e+01  6.13603e+00
       H -4.34989e+00  1.25674e+01  4.31861e+00
       H -4.54161e+00  1.43518e+01  6.68925e+00
       O  2.75877e-01 -9.94198e+00 -1.31737e+01
       H -1.19147e+00 -1.09709e+01 -1.36323e+01
       H  1.79191e+00 -1.09478e+01 -1.35009e+01
       O  4.52479e+00 -2.58220e+00 -1.31736e+01
       H  3.05750e+00 -3.61120e+00 -1.36322e+01
       H  6.04084e+00 -3.58815e+00 -1.35003e+01
       O  4.54038e+00 -1.25538e+01 -7.82378e-01
       H  4.54166e+00 -1.43510e+01 -2.29173e-01
       H  4.35042e+00 -1.25666e+01 -2.59983e+00
       O  2.91382e-01 -5.19489e+00 -7.82498e-01
       H  2.92775e-01 -6.99208e+00 -2.29179e-01
       H  1.01240e-01 -5.20770e+00 -2.59994e+00
       O  3.97307e+00 -1.21369e+01 -6.25482e+00
       H  2.45707e+00 -1.11310e+01 -6.58187e+00
       H  5.44043e+00 -1.11080e+01 -6.71350e+00
       O -2.76167e-01 -4.77714e+00 -6.25484e+00
       H -1.79215e+00 -3.77120e+00 -6.58193e+00
       H  1.19122e+00 -3.74822e+00 -6.71327e+00
       O -2.91294e-01 -9.52406e+00 -7.70061e+00
       H -1.01153e-01 -9.51128e+00 -9.51804e+00
       H -2.92737e-01 -7.72684e+00 -7.14734e+00
       O  3.95740e+00 -2.16468e+00 -7.70029e+00
       H  4.14711e+00 -2.15178e+00 -9.51779e+00
       H  3.95613e+00 -3.67477e-01 -7.14700e+00
       O  2.75838e-01 -9.94166e+00  6.63265e-01
       H -1.19143e+00 -1.09706e+01  2.04532e-01
       H  1.79197e+00 -1.09474e+01  3.36068e-01
       O  4.52471e+00 -2.58218e+00  6.62891e-01
       H  3.05743e+00 -3.61117e+00  2.04240e-01
       H  6.04080e+00 -3.58806e+00  3.36089e-01
       O  4.54037e+00 -1.25543e+01  1.30539e+01
       H  4.54173e+00 -1.43516e+01  1.36070e+01
       H  4.35050e+00 -1.25670e+01  1.12364e+01
       O  2.91297e-01 -5.19502e+00  1.30541e+01
       H  2.92732e-01 -6.99225e+00  1.36074e+01
       H  1.01206e-01 -5.20786e+00  1.12367e+01
       O  3.97310e+00 -1.21368e+01  7.58177e+00
       H  2.45707e+00 -1.11309e+01  7.25464e+00
       H  5.44051e+00 -1.11080e+01  7.12302e+00
       O -2.76100e-01 -4.77767e+00  7.58136e+00
       H -1.79210e+00 -3.77177e+00  7.25428e+00
       H  1.19125e+00 -3.74871e+00  7.12290e+00
       O -2.91340e-01 -9.52458e+00  6.13593e+00
       H -1.01282e-01 -9.51181e+00  4.31852e+00
       H -2.92762e-01 -7.72734e+00  6.68916e+00
       O  3.95728e+00 -2.16475e+00  6.13602e+00
       H  4.14704e+00 -2.15175e+00  4.31853e+00
       H  3.95603e+00 -3.67615e-01  6.68942e+00
       O  2.75872e-01  4.77775e+00 -1.31735e+01
       H -1.19145e+00  3.74868e+00 -1.36320e+01
       H  1.79192e+00  3.77189e+00 -1.35005e+01
       O  4.52473e+00  1.21369e+01 -1.31737e+01
       H  3.05744e+00  1.11080e+01 -1.36325e+01
       H  6.04082e+00  1.11311e+01 -1.35004e+01
       O  4.54033e+00  2.16480e+00 -7.82502e-01
       H  4.54166e+00  3.67553e-01 -2.29384e-01
       H  4.35052e+00  2.15214e+00 -2.60000e+00
       O  2.91442e-01  9.52423e+00 -7.82681e-01
       H  2.92837e-01  7.72701e+00 -2.29452e-01
       H  1.01299e-01  9.51146e+00 -2.60013e+00
       O  3.97319e+00  2.58230e+00 -6.25496e+00
       H  2.45717e+00  3.58819e+00 -6.58198e+00
       H  5.44056e+00  3.61109e+00 -6.71379e+00
       O -2.76125e-01  9.94167e+00 -6.25515e+00
       H -1.79212e+00  1.09476e+01 -6.58222e+00
       H  1.19126e+00  1.09706e+01 -6.71377e+00
       O -2.91369e-01  5.19475e+00 -7.70046e+00
       H -1.01380e-01  5.20765e+00 -9.51793e+00
       H -2.92793e-01  6.99195e+00 -7.14718e+00
       O  3.95737e+00  1.25543e+01 -7.70076e+00
       H  4.14703e+00  1.25673e+01 -9.51824e+00
       H  3.95606e+00  1.43514e+01 -7.14726e+00
       O  2.75794e-01  4.77734e+00  6.62959e-01
       H -1.19152e+00  3.74832e+00  2.04499e-01
       H  1.79186e+00  3.77147e+00  3.35887e-01
       O  4.52464e+00  1.21373e+01  6.62988e-01
       H  3.05745e+00  1.11082e+01  2.04218e-01
       H  6.04076e+00  1.11314e+01  3.36450e-01
       O  4.54041e+00  2.16499e+00  1.30543e+01
       H  4.54178e+00  3.67749e-01  1.36074e+01
       H  4.35054e+00  2.15228e+00  1.12368e+01
       O  2.91308e-01  9.52457e+00  1.30538e+01
       H  2.92715e-01  7.72735e+00  1.36071e+01
       H  1.01225e-01  9.51181e+00  1.12363e+01
       O  3.97315e+00  2.58235e+00  7.58152e+00
       H  2.45713e+00  3.58829e+00  7.25455e+00
       H  5.44048e+00  3.61122e+00  7.12279e+00
       O -2.76008e-01  9.94202e+00  7.58171e+00
       H -1.79205e+00  1.09479e+01  7.25468e+00
       H  1.19134e+00  1.09710e+01  7.12317e+00
       O -2.91416e-01  5.19510e+00  6.13606e+00
       H -1.01371e-01  5.20795e+00  4.31863e+00
       H -2.92777e-01  6.99228e+00  6.68938e+00
       O  3.95729e+00  1.25546e+01  6.13612e+00
       H  4.14688e+00  1.25676e+01  4.31864e+00
       H  3.95603e+00  1.43518e+01  6.68952e+00
192
# CELL(abcABC):   16.99620    29.43815    27.67315    90.00000    90.00000    90.00000  Step:          10  Bead:      28 positions{atomic_unit}  cell{atomic_unit}
       O -8.19253e+00 -9.95706e+00 -1.31809e+01
       H  7.22125e+00 -1.10328e+01 -1.35676e+01
       H -6.47006e+00 -1.08758e+01 -1.34347e+01
       O -3.89159e+00 -2.57136e+00 -1.30903e+01
       H -5.42948e+00 -3.53657e+00 -1.36089e+01
       H -2.65821e+00 -3.75231e+00 -1.30486e+01
       O -3.92314e+00 -1.25352e+01 -8.23675e-01
       H -3.90387e+00 -1.43026e+01 -2.91029e-01
       H -4.04454e+00 -1.23374e+01 -2.69251e+00
       O -8.28311e+00 -5.21835e+00 -8.07233e-01
       H -8.27022e+00 -7.26242e+00 -1.98858e-01
       H -8.40910e+00 -5.34964e+00 -2.53497e+00
       O -4.47031e+00 -1.21411e+01 -6.27630e+00
       H -6.07302e+00 -1.11251e+01 -6.78404e+00
       H -3.23044e+00 -1.10745e+01 -6.75273e+00
       O  8.25111e+00 -4.74186e+00 -6.25965e+00
       H  6.58065e+00 -3.71660e+00 -6.34279e+00
       H -7.18915e+00 -3.69945e+00 -6.79419e+00
       O  8.20296e+00 -9.42929e+00 -7.71644e+00
       H  8.63006e+00 -9.55860e+00 -9.53405e+00
       H  8.24154e+00 -7.84430e+00 -7.11016e+00
       O -4.51506e+00 -2.09820e+00 -7.72636e+00
       H -4.24412e+00 -2.19292e+00 -9.49713e+00
       H -4.42230e+00 -5.11817e-01 -7.00094e+00
       O -8.22616e+00 -9.91825e+00  6.88526e-01
       H  7.45843e+00 -1.11319e+01  4.15157e-02
       H -6.54681e+00 -1.11686e+01  3.57943e-01
       O -3.99379e+00 -2.63139e+00  7.63551e-01
       H -5.37308e+00 -3.64730e+00 -1.49840e-02
       H -2.38990e+00 -3.67234e+00  5.28219e-01
       O -3.94859e+00 -1.25079e+01  1.30312e+01
       H -4.06560e+00 -1.42740e+01  1.36401e+01
       H -4.19601e+00 -1.24608e+01  1.12243e+01
       O -8.22331e+00 -5.18492e+00  1.30016e+01
       H -7.97590e+00 -7.04862e+00  1.36636e+01
       H -8.49338e+00 -5.14583e+00  1.12927e+01
       O -4.53181e+00 -1.21567e+01  7.53448e+00
       H -5.96926e+00 -1.11587e+01  7.07721e+00
       H -3.03445e+00 -1.08357e+01  7.12064e+00
       O  8.27092e+00 -4.78673e+00  7.59967e+00
       H  6.63521e+00 -3.54584e+00  7.53961e+00
       H -7.19313e+00 -3.80757e+00  6.99574e+00
       O  8.24069e+00 -9.48548e+00  6.14110e+00
       H  8.55872e+00 -9.25630e+00  4.39332e+00
       H  8.18400e+00 -7.78623e+00  6.78764e+00
       O -4.51556e+00 -2.19824e+00  6.21298e+00
       H -4.39947e+00 -2.31173e+00  4.45630e+00
       H -4.61196e+00 -4.36050e-01  6.85996e+00
       O -8.26385e+00  4.82428e+00 -1.31551e+01
       H  7.15467e+00  3.76749e+00 -1.34079e+01
       H -6.77908e+00  4.01349e+00 -1.35918e+01
       O -3.97696e+00  1.21348e+01 -1.32141e+01
       H -5.47942e+00  1.09873e+01 -1.35479e+01
       H -2.59048e+00  1.09136e+01 -1.34351e+01
       O -3.91563e+00  2.13874e+00 -7.95662e-01
       H -4.06889e+00  2.70657e-01 -3.69153e-01
       H -4.15614e+00  1.91970e+00 -2.72302e+00
       O -8.24113e+00  9.48326e+00 -8.55653e-01
       H -8.00485e+00  7.97698e+00 -1.50818e-01
       H -8.17372e+00  9.57557e+00 -2.71745e+00
       O -4.52132e+00  2.56736e+00 -6.26501e+00
       H -6.06746e+00  3.59384e+00 -6.54696e+00
       H -3.09168e+00  3.29456e+00 -6.76738e+00
       O  8.16702e+00  9.94473e+00 -6.22464e+00
       H  6.52976e+00  1.09636e+01 -6.80484e+00
       H -7.41256e+00  1.09557e+01 -6.64456e+00
       O  8.21993e+00  5.24465e+00 -7.65511e+00
       H  8.55840e+00  4.91181e+00 -9.49812e+00
       H  8.27850e+00  7.11468e+00 -7.42015e+00
       O -4.55878e+00  1.25878e+01 -7.72357e+00
       H -4.52552e+00  1.26860e+01 -9.64914e+00
       H -4.65915e+00  1.42740e+01 -7.00929e+00
       O -8.19920e+00  4.76360e+00  6.17878e-01
       H  7.39187e+00  3.71835e+00  3.17514e-01
       H -6.76996e+00  3.92992e+00  4.05322e-01
       O -3.98476e+00  1.21146e+01  6.60388e-01
       H -5.25323e+00  1.11282e+01  3.64225e-01
       H -2.67821e+00  1.11515e+01  2.88149e-01
       O -3.96567e+00  2.16049e+00  1.30207e+01
       H -3.64738e+00  3.32207e-01  1.38269e+01
       H -4.38063e+00  1.99954e+00  1.12732e+01
       O -8.20722e+00  9.47227e+00  1.30696e+01
       H -8.46567e+00  7.63313e+00  1.33972e+01
       H -8.54301e+00  9.36416e+00  1.13159e+01
       O -4.50411e+00  2.60945e+00  7.51391e+00
       H -6.06758e+00  3.43569e+00  7.22350e+00
       H -2.78741e+00  3.55462e+00  7.32510e+00
       O  8.27024e+00  9.94090e+00  7.59215e+00
       H  6.56899e+00  1.11807e+01  7.27695e+00
       H -7.24413e+00  1.10156e+01  7.05694e+00
       O  8.22071e+00  5.22344e+00  6.11727e+00
       H  8.20565e+00  5.01364e+00  4.24987e+00
       H  8.21312e+00  7.03363e+00  6.71895e+00
       O -4.51644e+00  1.25018e+01  6.17160e+00
       H -4.33694e+00  1.26292e+01  4.40600e+00
       H -4.44280e+00  1.43246e+01  6.79421e+00
       O  3.03631e-01 -9.95640e+00 -1.32608e+01
       H -1.12872e+00 -1.10396e+01 -1.35825e+01
       H  1.65107e+00 -1.10306e+01 -1.32482e+01
       O  4.50406e+00 -2.60840e+00 -1.31548e+01
       H  3.06711e+00 -3.36844e+00 -1.35184e+01
       H  5.91850e+00 -3.40529e+00 -1.35819e+01
       O  4.61108e+00 -1.26549e+01 -8.12093e-01
       H  4.49119e+00 -1.43416e+01 -2.01337e-01
       H  4.46598e+00 -1.21901e+01 -2.67163e+00
       O  3.11489e-01 -5.23759e+00 -7.70967e-01
       H  4.07136e-01 -7.11340e+00 -5.46777e-02
       H  7.45761e-02 -5.20098e+00 -2.46052e+00
       O  3.97633e+00 -1.21304e+01 -6.23771e+00
       H  2.26597e+00 -1.14257e+01 -6.54436e+00
       H  5.40827e+00 -1.12341e+01 -6.62584e+00
       O -3.04145e-01 -4.83006e+00 -6.24688e+00
       H -1.94094e+00 -3.79498e+00 -6.78537e+00
       H  1.33577e+00 -3.81612e+00 -6.67575e+00
       O -2.61309e-01 -9.49065e+00 -7.73424e+00
       H  1.31722e-01 -9.60480e+00 -9.37874e+00
       H -5.29130e-01 -7.94572e+00 -7.15110e+00
       O  3.97871e+00 -2.16506e+00 -7.67134e+00
       H  4.06410e+00 -2.22652e+00 -9.49424e+00
       H  4.30238e+00 -5.37593e-01 -7.03246e+00
       O  2.94681e-01 -9.89761e+00  6.48101e-01
       H -1.33116e+00 -1.08969e+01  6.88032e-02
       H  1.78270e+00 -1.08569e+01  4.08588e-01
       O  4.56333e+00 -2.53629e+00  6.16559e-01
       H  3.06442e+00 -3.76755e+00  3.30210e-01
       H  5.95986e+00 -3.72351e+00  5.02620e-01
       O  4.56277e+00 -1.25806e+01  1.31333e+01
       H  4.55201e+00 -1.44294e+01  1.35091e+01
       H  4.36916e+00 -1.22405e+01  1.12558e+01
       O  3.36366e-01 -5.18460e+00  1.30675e+01
       H  4.79366e-01 -7.23464e+00  1.37806e+01
       H -6.22834e-02 -5.14773e+00  1.12693e+01
       O  3.97031e+00 -1.21581e+01  7.57510e+00
       H  2.44055e+00 -1.11422e+01  7.18574e+00
       H  5.18277e+00 -1.10712e+01  7.11451e+00
       O -2.68826e-01 -4.76628e+00  7.52517e+00
       H -1.84966e+00 -3.77413e+00  7.32099e+00
       H  1.26819e+00 -3.81313e+00  6.97578e+00
       O -3.20767e-01 -9.58328e+00  6.12377e+00
       H -5.69694e-01 -9.41428e+00  4.12151e+00
       H -2.04476e-01 -7.65710e+00  6.90375e+00
       O  3.92708e+00 -2.20403e+00  6.12426e+00
       H  4.26212e+00 -2.31357e+00  4.37906e+00
       H  4.07405e+00 -2.18489e-01  6.78940e+00
       O  2.37916e-01  4.78741e+00 -1.31288e+01
       H -1.39845e+00  3.98299e+00 -1.35260e+01
       H  1.63847e+00  3.81432e+00 -1.36290e+01
       O  4.49762e+00  1.21032e+01 -1.31671e+01
       H  3.00573e+00  1.11970e+01 -1.35665e+01
       H  6.03783e+00  1.13763e+01 -1.34526e+01
       O  4.53084e+00  2.20217e+00 -7.68125e-01
       H  4.60443e+00  5.13736e-01 -2.25311e-01
       H  4.17524e+00  2.08528e+00 -2.36506e+00
       O  2.68179e-01  9.51764e+00 -7.88236e-01
       H  4.85246e-01  7.72265e+00 -1.99121e-01
       H -1.14153e-01  9.51906e+00 -2.51615e+00
       O  3.96910e+00  2.59873e+00 -6.27139e+00
       H  2.36242e+00  3.30269e+00 -6.39998e+00
       H  5.44149e+00  3.84002e+00 -6.48187e+00
       O -2.59152e-01  9.91168e+00 -6.24923e+00
       H -1.92159e+00  1.08559e+01 -6.70403e+00
       H  1.28526e+00  1.09575e+01 -6.56074e+00
       O -2.70508e-01  5.21899e+00 -7.73420e+00
       H -7.89605e-02  5.50756e+00 -9.50763e+00
       H -4.53597e-01  6.98888e+00 -7.16507e+00
       O  3.99276e+00  1.26181e+01 -7.71940e+00
       H  4.31296e+00  1.25740e+01 -9.51682e+00
       H  4.18320e+00  1.44307e+01 -7.26268e+00
       O  2.38828e-01  4.74955e+00  6.57444e-01
       H -9.71772e-01  3.50073e+00  2.28404e-01
       H  1.75492e+00  4.07052e+00  9.71606e-02
       O  4.56275e+00  1.20593e+01  7.05206e-01
       H  3.08854e+00  1.11230e+01  2.38148e-01
       H  6.14338e+00  1.08751e+01  6.09495e-01
       O  4.50213e+00  2.24537e+00  1.30081e+01
       H  4.60125e+00  3.74585e-01  1.36201e+01
       H  4.31649e+00  2.18341e+00  1.10332e+01
       O  2.50833e-01  9.49958e+00  1.30711e+01
       H  5.96286e-01  7.64251e+00  1.34128e+01
       H -1.03939e-02  9.47552e+00  1.12027e+01
       O  3.99590e+00  2.54902e+00  7.62244e+00
       H  2.34766e+00  3.38207e+00  7.33829e+00
       H  5.47722e+00  3.60412e+00  7.29223e+00
       O -2.74992e-01  9.94825e+00  7.60542e+00
       H -1.71944e+00  1.11474e+01  7.19865e+00
       H  9.77917e-01  1.10290e+01  6.99416e+00
       O -2.95863e-01  5.16630e+00  6.12834e+00
       H -2.93909e-01  5.23370e+00  4.46253e+00
       H -1.46937e-02  7.33358e+00  6.59461e+00
       O  4.02893e+00  1.25931e+01  6.08360e+00
       H  4.00828e+00  1.26195e+01  4.48195e+00
       H  3.78901e+00  1.43540e+01  6.80159e+00
192
# CELL(abcABC):   16.99620    29.43815    27.67315    90.00000    90.00000    90.00000  Step:          20  Bead:      28 positions{atomic_unit}  cell{atomic_unit}
       O -8.19568e+00 -1.00105e+01 -1.31999e+01
       H  7.05181e+00 -1.10720e+01 -1.32106e+01
       H -6.89136e+00 -1.10252e+01 -1.35219e+01
       O -3.80679e+00 -2.53971e+00 -1.30824e+01
       H -5.35465e+00 -3.63824e+00 -1.35346e+01
       H -2.30496e+00 -3.76828e+00 -1.30681e+01
       O -3.92003e+00 -1.25689e+01 -8.74535e-01
       H -3.94072e+00 -1.45126e+01 -3.22727e-01
       H -4.26934e+00 -1.23313e+01 -2.51202e+00
       O -8.28500e+00 -5.22400e+00 -8.13999e-01
       H -8.00665e+00 -7.16594e+00 -5.35342e-01
       H -8.39257e+00 -5.21608e+00 -2.81123e+00
       O -4.50403e+00 -1.20779e+01 -6.30463e+00
       H -5.88638e+00 -1.09521e+01 -6.70754e+00
       H -3.19340e+00 -1.09343e+01 -6.59983e+00
       O  8.20014e+00 -4.76901e+00 -6.28536e+00
       H  6.52440e+00 -3.64872e+00 -6.33084e+00
       H -7.21358e+00 -3.60959e+00 -7.26035e+00
       O  8.27977e+00 -9.44199e+00 -7.70950e+00
       H  8.45957e+00 -9.36913e+00 -9.46617e+00
       H  8.14716e+00 -7.59786e+00 -6.92869e+00
       O -4.50563e+00 -2.09018e+00 -7.72410e+00
       H -4.51495e+00 -2.08570e+00 -9.64746e+00
       H -4.56362e+00 -3.48249e-01 -6.93633e+00
       O -8.22038e+00 -9.94135e+00  6.64939e-01
       H  7.36663e+00 -1.09595e+01  4.05819e-03
       H -6.77944e+00 -1.11596e+01  2.38988e-01
       O -4.02691e+00 -2.61872e+00  7.68347e-01
       H -5.38944e+00 -3.73577e+00  1.73306e-01
       H -2.41495e+00 -3.98383e+00  3.01062e-01
       O -3.94374e+00 -1.24321e+01  1.30299e+01
       H -4.11046e+00 -1.41233e+01  1.38395e+01
       H -4.45865e+00 -1.24795e+01  1.12510e+01
       O -8.18402e+00 -5.14700e+00  1.30950e+01
       H -7.94969e+00 -6.83092e+00  1.33513e+01
       H -8.57994e+00 -5.38879e+00  1.12256e+01
       O -4.58312e+00 -1.21228e+01  7.49707e+00
       H -6.11828e+00 -1.10765e+01  6.80446e+00
       H -2.92353e+00 -1.10754e+01  6.92221e+00
       O  8.26577e+00 -4.76761e+00  7.61596e+00
       H  6.75869e+00 -3.29649e+00  7.50969e+00
       H -7.33694e+00 -3.94348e+00  6.92570e+00
       O  8.25569e+00 -9.44546e+00  6.19314e+00
       H  8.60565e+00 -9.14851e+00  4.43476e+00
       H  8.23696e+00 -7.30912e+00  6.85171e+00
       O -4.50882e+00 -2.23362e+00  6.13020e+00
       H -4.68889e+00 -2.33979e+00  4.36768e+00
       H -4.83800e+00 -3.72160e-01  7.00458e+00
       O -8.31626e+00  4.81748e+00 -1.32039e+01
       H  7.11526e+00  3.39881e+00 -1.37126e+01
       H -6.70876e+00  3.90212e+00 -1.34425e+01
       O -3.98082e+00  1.21264e+01 -1.32018e+01
       H -5.42607e+00  1.10068e+01 -1.38364e+01
       H -2.33805e+00  1.09460e+01 -1.33508e+01
       O -3.83981e+00  2.12765e+00 -8.83004e-01
       H -4.18494e+00  2.45118e-01 -4.51130e-01
       H -4.01698e+00  2.12442e+00 -2.47420e+00
       O -8.25307e+00  9.51027e+00 -8.91287e-01
       H -7.64803e+00  7.82713e+00 -1.84137e-01
       H -7.96951e+00  9.45959e+00 -2.66021e+00
       O -4.60927e+00  2.58241e+00 -6.27524e+00
       H -5.92855e+00  3.73887e+00 -6.70346e+00
       H -2.91533e+00  3.20194e+00 -7.04816e+00
       O  8.09091e+00  1.00177e+01 -6.20676e+00
       H  6.77447e+00  1.08799e+01 -6.76669e+00
       H -7.38010e+00  1.09700e+01 -6.56358e+00
       O  8.23496e+00  5.24112e+00 -7.69891e+00
       H  8.76834e+00  4.96141e+00 -9.48103e+00
       H  8.23368e+00  6.98496e+00 -7.34352e+00
       O -4.65551e+00  1.25568e+01 -7.67763e+00
       H -4.54854e+00  1.27574e+01 -9.68329e+00
       H -4.41041e+00  1.45476e+01 -7.01827e+00
       O -8.21752e+00  4.73842e+00  6.05305e-01
       H  7.31103e+00  3.36067e+00  5.01993e-01
       H -6.79899e+00  3.74514e+00 -3.56831e-04
       O -3.97157e+00  1.21238e+01  6.18835e-01
       H -5.52391e+00  1.13049e+01  1.80508e-02
       H -2.39155e+00  1.10658e+01  3.66829e-01
       O -3.99836e+00  2.21391e+00  1.30120e+01
       H -3.57186e+00  2.68611e-01  1.37372e+01
       H -4.88460e+00  2.20888e+00  1.11529e+01
       O -8.30160e+00  9.44816e+00  1.30687e+01
       H -8.65108e+00  7.40951e+00  1.31988e+01
       H -8.66262e+00  9.42227e+00  1.12608e+01
       O -4.46099e+00  2.57043e+00  7.53783e+00
       H -6.36451e+00  3.50982e+00  7.67750e+00
       H -3.00194e+00  3.65553e+00  7.02533e+00
       O  8.26996e+00  9.99141e+00  7.56866e+00
       H  6.66203e+00  1.12760e+01  7.31818e+00
       H -7.13406e+00  1.07236e+01  6.76391e+00
       O  8.23908e+00  5.24627e+00  6.09117e+00
       H  8.43213e+00  5.26046e+00  4.43528e+00
       H  8.17886e+00  7.24004e+00  6.62704e+00
       O -4.47034e+00  1.25380e+01  6.19857e+00
       H -4.50016e+00  1.27572e+01  4.41578e+00
       H -4.78924e+00  1.44253e+01  6.74055e+00
       O  2.73060e-01 -9.86771e+00 -1.32921e+01
       H -1.06228e+00 -1.08564e+01 -1.34468e+01
       H  1.84459e+00 -1.11127e+01 -1.34063e+01
       O  4.55220e+00 -2.60916e+00 -1.30503e+01
       H  3.08702e+00 -3.66080e+00 -1.35932e+01
       H  5.99220e+00 -3.53653e+00 -1.35389e+01
       O  4.59102e+00 -1.27279e+01 -8.41927e-01
       H  4.52580e+00 -1.43924e+01 -2.10737e-01
       H  4.49455e+00 -1.23329e+01 -2.57420e+00
       O  2.69087e-01 -5.25482e+00 -7.34719e-01
       H  1.05180e-01 -7.11551e+00 -5.29975e-01
       H  1.51350e-01 -4.93564e+00 -2.61240e+00
       O  4.04926e+00 -1.21603e+01 -6.23085e+00
       H  2.17892e+00 -1.13882e+01 -6.43443e+00
       H  5.60531e+00 -1.11328e+01 -6.77948e+00
       O -3.18743e-01 -4.83413e+00 -6.17769e+00
       H -1.88445e+00 -4.15030e+00 -6.66537e+00
       H  1.49069e+00 -3.92555e+00 -6.51664e+00
       O -2.64978e-01 -9.48540e+00 -7.77396e+00
       H -2.53322e-02 -9.47122e+00 -9.43217e+00
       H -5.33690e-01 -7.68424e+00 -7.11893e+00
       O  3.98947e+00 -2.14957e+00 -7.68306e+00
       H  3.64446e+00 -2.04839e+00 -9.68835e+00
       H  4.36235e+00 -5.46739e-01 -7.19802e+00
       O  2.18924e-01 -9.88495e+00  6.00526e-01
       H -1.29077e+00 -1.08795e+01  1.18184e-01
       H  1.82619e+00 -1.08107e+01  3.95357e-01
       O  4.57086e+00 -2.54675e+00  5.99288e-01
       H  3.13429e+00 -3.68439e+00  3.37645e-01
       H  5.84566e+00 -3.73574e+00  6.83569e-01
       O  4.59268e+00 -1.24738e+01  1.31832e+01
       H  4.43571e+00 -1.42216e+01  1.34566e+01
       H  4.29570e+00 -1.22980e+01  1.14703e+01
       O  2.55195e-01 -5.16968e+00  1.30984e+01
       H  6.76251e-01 -7.27073e+00  1.37795e+01
       H  1.09638e-01 -5.20422e+00  1.12057e+01
       O  3.95361e+00 -1.21253e+01  7.51539e+00
       H  2.27958e+00 -1.07392e+01  7.12426e+00
       H  5.51878e+00 -1.10894e+01  7.27321e+00
       O -3.51271e-01 -4.78139e+00  7.45976e+00
       H -1.79844e+00 -3.61329e+00  7.35514e+00
       H  1.33783e+00 -3.65552e+00  7.37883e+00
       O -3.94927e-01 -9.60852e+00  6.08021e+00
       H -5.34950e-01 -9.51706e+00  4.20355e+00
       H -1.89880e-02 -7.69932e+00  6.90446e+00
       O  3.93845e+00 -2.23702e+00  6.09456e+00
       H  3.98794e+00 -2.37888e+00  4.30818e+00
       H  4.33683e+00 -2.62602e-01  6.74751e+00
       O  1.64067e-01  4.81697e+00 -1.31137e+01
       H -1.50217e+00  4.02329e+00 -1.36276e+01
       H  1.65370e+00  3.53497e+00 -1.39223e+01
       O  4.49715e+00  1.21160e+01 -1.31865e+01
       H  3.10912e+00  1.10338e+01 -1.37182e+01
       H  6.24646e+00  1.12676e+01 -1.34520e+01
       O  4.56060e+00  2.17913e+00 -7.30665e-01
       H  4.49709e+00  4.13286e-01 -5.49271e-02
       H  4.22732e+00  2.29345e+00 -2.73526e+00
       O  2.59302e-01  9.48218e+00 -7.25007e-01
       H  4.09995e-01  7.71749e+00  8.35036e-02
       H  1.73776e-03  9.56838e+00 -2.51486e+00
       O  4.00069e+00  2.59747e+00 -6.23684e+00
       H  2.38482e+00  3.49730e+00 -6.71197e+00
       H  5.47308e+00  3.87599e+00 -6.26607e+00
       O -2.44617e-01  9.89981e+00 -6.20616e+00
       H -1.67834e+00  1.07855e+01 -6.51722e+00
       H  1.37529e+00  1.10024e+01 -6.48142e+00
       O -3.09073e-01  5.18922e+00 -7.74038e+00
       H -1.03059e-01  5.53467e+00 -9.40554e+00
       H -4.84305e-01  6.99206e+00 -7.22994e+00
       O  4.01837e+00  1.26124e+01 -7.71133e+00
       H  4.34937e+00  1.25963e+01 -9.46053e+00
       H  3.79909e+00  1.44737e+01 -7.14888e+00
       O  2.49095e-01  4.82264e+00  6.74777e-01
       H -1.17806e+00  3.45972e+00  2.57006e-01
       H  2.03850e+00  3.80935e+00  3.86350e-01
       O  4.65870e+00  1.20535e+01  7.03184e-01
       H  3.22461e+00  1.08960e+01  1.91201e-01
       H  6.24678e+00  1.10759e+01  4.15386e-01
       O  4.48350e+00  2.35258e+00  1.30524e+01
       H  4.53594e+00  6.44529e-01  1.38665e+01
       H  4.69129e+00  2.48785e+00  1.10058e+01
       O  2.28975e-01  9.49359e+00  1.29797e+01
       H  6.57542e-01  7.74666e+00  1.36723e+01
       H -7.65274e-02  9.48835e+00  1.10143e+01
       O  4.00155e+00  2.47046e+00  7.60143e+00
       H  2.49528e+00  3.51017e+00  7.44901e+00
       H  5.42770e+00  3.92266e+00  7.56397e+00
       O -2.53078e-01  9.99129e+00  7.58522e+00
       H -1.74623e+00  1.11948e+01  7.35497e+00
       H  1.05579e+00  1.08282e+01  6.99914e+00
       O -2.57217e-01  5.20579e+00  6.13267e+00
       H -3.37609e-01  5.35786e+00  4.22010e+00
       H  2.62781e-01  7.25563e+00  6.40794e+00
       O  3.95098e+00  1.25893e+01  6.04412e+00
       H  3.62666e+00  1.27840e+01  4.18983e+00
       H  3.96476e+00  1.43978e+01  6.66665e+00
192
# CELL(abcABC):   16.99620    29.43815    27.67315    90.00000    90.00000    90.00000  Step:          30  Bead:      28 positions{atomic_unit}  cell{atomic_unit}
       O -8.20473e+00 -9.95179e+00 -1.32230e+01
       H  7.20271e+00 -1.09506e+01 -1.31450e+01
       H -7.02262e+00 -1.11580e+01 -1.36761e+01
       O -3.82809e+00 -2.51321e+00 -1.30677e+01
       H -5.01988e+00 -3.81335e+00 -1.35652e+01
       H -2.00948e+00 -3.71116e+00 -1.31609e+01
       O -3.89729e+00 -1.25349e+01 -9.49944e-01
       H -4.02169e+00 -1.44971e+01 -4.79023e-01
       H -4.34769e+00 -1.22926e+01 -2.78411e+00
       O -8.21957e+00 -5.23715e+00 -7.27398e-01
       H -8.02636e+00 -7.17757e+00 -3.46006e-01
       H -8.37881e+00 -5.08987e+00 -2.81475e+00
       O -4.48616e+00 -1.20936e+01 -6.29942e+00
       H -5.86823e+00 -1.09830e+01 -6.74904e+00
       H -3.11123e+00 -1.08382e+01 -6.72769e+00
       O  8.14741e+00 -4.73506e+00 -6.33489e+00
       H  6.48252e+00 -3.63050e+00 -6.53974e+00
       H -7.39323e+00 -3.52819e+00 -7.38756e+00
       O  8.30470e+00 -9.47131e+00 -7.65511e+00
       H  8.13519e+00 -9.03275e+00 -9.50019e+00
       H  7.84239e+00 -7.74069e+00 -6.73698e+00
       O -4.53044e+00 -2.12723e+00 -7.70684e+00
       H -4.26182e+00 -1.91232e+00 -9.57367e+00
       H -4.53276e+00 -2.78969e-01 -6.72598e+00
       O -8.26667e+00 -9.89126e+00  6.63200e-01
       H  7.04303e+00 -1.07672e+01  5.32057e-02
       H -6.89723e+00 -1.11346e+01 -1.71199e-01
       O -3.98126e+00 -2.67589e+00  7.77484e-01
       H -5.49453e+00 -3.60205e+00  2.38005e-01
       H -2.37107e+00 -3.76483e+00  6.90516e-01
       O -3.98518e+00 -1.23658e+01  1.30570e+01
       H -4.09579e+00 -1.41319e+01  1.36965e+01
       H -4.29714e+00 -1.22776e+01  1.12954e+01
       O -8.26387e+00 -5.14275e+00  1.30310e+01
       H -8.17076e+00 -6.91984e+00  1.31966e+01