192
# CELL(abcABC):   16.99620    29.43815    27.67315    90.00000    90.00000    90.00000  Step:           0  Bead:      28 velocities{atomic_unit}  cell{atomic_unit}
       O  1.31585e-03  7.60128e-04  1.27836e-03
       H -2.32058e-03  8.74590e-04  4.21189e-03
       H -3.54764e-03 -2.09448e-03 -2.11958e-03
       O  5.92747e-04  7.01692e-04  1.62962e-03
       H  5.57340e-03 -3.01342e-03 -1.64132e-03
       H -6.06317e-03 -1.58966e-04  5.85260e-03
       O  1.46242e-03  6.28697e-04 -5.76937e-04
       H  2.93765e-03 -5.27133e-03  1.57554e-03
       H  9.08564e-04  1.22767e-03  3.73509e-03
       O -1.51809e-03  8.18281e-04 -6.70815e-04
       H -1.23608e-03 -2.12788e-03 -3.93781e-03
       H -1.27109e-03 -1.48329e-03  5.11787e-03
       O -5.18370e-04 -6.17097e-04  9.99017e-05
       H  1.28248e-02 -2.79827e-03 -7.87796e-03
       H -3.19852e-03 -5.25673e-03 -2.76501e-03
       O  2.12249e-04  4.22022e-04  1.24466e-04
       H -5.33460e-03  5.33660e-03  4.73128e-04
       H  2.92152e-03  1.37338e-03 -4.15631e-03
       O  3.51761e-04  3.71667e-04  1.20717e-03
       H  3.63415e-03 -3.78513e-04  1.13518e-02
       H -2.75942e-03 -4.81211e-04 -2.48889e-03
       O  9.67410e-06  1.94792e-03 -9.08389e-04
       H -3.87252e-03  3.08692e-03  2.73584e-03
       H  1.22748e-03 -2.62043e-03  9.62753e-04
       O  1.26575e-03 -1.95280e-04  2.86529e-03
       H -1.10825e-03 -1.92423e-03 -3.64432e-03
       H  2.27443e-03  3.01445e-03 -3.72207e-03
       O  1.28794e-03  6.78057e-04  8.33363e-04
       H  2.83195e-03  2.01374e-03 -7.17153e-03
       H -4.31467e-03 -2.98382e-03  3.64771e-03
       O  1.73140e-04  1.00287e-03  5.66318e-04
       H -4.20890e-03  3.16361e-03 -3.78804e-03
       H -2.28936e-04 -3.14082e-03 -2.82499e-03
       O -1.16819e-03 -1.94156e-03 -1.51739e-04
       H -1.75905e-03 -4.14764e-03 -9.57308e-04
       H -5.29557e-03  2.80143e-04 -7.65921e-03
       O -9.30915e-04 -1.00812e-03 -4.79484e-04
       H -2.06844e-03  5.97890e-03  1.51966e-04
       H  5.18404e-03 -2.90768e-04 -1.77468e-03
       O  1.97619e-04 -1.06803e-03  1.60324e-04
       H -3.59264e-03  6.88024e-04  2.11189e-03
       H  1.78871e-03 -1.92589e-03 -4.80802e-03
       O  4.69368e-04  9.53348e-04 -1.66949e-04
       H  7.05123e-03  5.85569e-03  4.64941e-03
       H -3.51230e-04 -2.17864e-03 -2.06483e-03
       O  1.17669e-03 -1.19439e-03  6.61224e-04
       H -1.86357e-03 -3.33865e-03  4.50969e-03
       H  1.26047e-03 -2.67452e-03 -1.57580e-03
       O -8.40083e-04  1.50171e-03  6.85134e-04
       H -8.92565e-04 -1.77071e-03  1.66208e-03
       H  3.13617e-03 -1.04624e-03  4.83667e-03
       O  1.01720e-03 -6.26691e-04  1.08886e-03
       H -3.34822e-03 -3.11072e-03 -3.50543e-03
       H -2.57542e-03 -1.88198e-03 -1.90072e-03
       O  2.17938e-03 -7.99908e-04  5.63278e-05
       H -1.61227e-03 -1.62168e-03  6.97175e-03
       H  4.99539e-03 -1.92645e-03 -3.73146e-03
       O -4.15613e-04 -1.13514e-03  5.53011e-04
       H  4.58872e-03  1.18948e-04 -3.01313e-03
       H  6.97446e-04 -1.86656e-03 -9.42877e-03
       O  1.12540e-03  1.37906e-03 -1.33592e-03
       H  1.53279e-04  6.43157e-04 -8.59566e-03
       H -4.93626e-04 -3.99755e-03  2.65855e-03
       O  3.40541e-04 -6.06872e-04 -1.91327e-05
       H  6.70781e-04  3.07889e-03 -2.30969e-03
       H -3.18416e-04 -4.13831e-03 -1.32765e-03
       O  2.67872e-04  4.58348e-04 -7.20293e-04
       H  2.21212e-03 -3.79290e-03 -4.18771e-03
       H  8.10664e-03  3.43156e-03  2.59447e-03
       O  1.19649e-04 -1.18173e-03  1.52096e-05
       H -2.60528e-03  6.21973e-03  3.50601e-03
       H -1.30068e-03  9.00855e-04  3.18139e-03
       O  2.57284e-04  5.86215e-04 -8.26692e-04
       H -4.45359e-04 -2.94561e-03  2.84527e-03
       H  6.13972e-04  1.60753e-03  3.94944e-03
       O -8.04604e-04 -1.63798e-03  4.84176e-04
       H -2.25829e-03 -2.01492e-03  1.40624e-03
       H -2.95681e-03 -1.75753e-03  9.42526e-04
       O  3.78851e-04 -2.75503e-03 -9.81751e-04
       H  3.13605e-03 -2.09097e-04  3.97751e-03
       H  3.09247e-03  2.27371e-03 -1.03532e-02
       O  8.66623e-04 -1.21096e-03  1.25381e-06
       H  4.29716e-03 -2.83772e-03 -6.71952e-03
       H -2.23114e-03  1.27494e-03  1.41207e-03
       O  7.33330e-04 -3.83289e-04 -4.08227e-04
       H -2.61465e-03 -4.88341e-03  3.43403e-03
       H -1.46538e-03  6.95115e-04  5.62403e-03
       O  5.45615e-04  1.05433e-03 -3.41950e-04
       H  2.38074e-03  2.80680e-03  2.28586e-03
       H  6.30942e-04 -6.46466e-03 -1.05768e-03
       O  9.58208e-05  6.41584e-04  4.73462e-04
       H -1.88438e-03 -2.96727e-04 -1.08264e-02
       H -3.38521e-03  1.63578e-03 -2.66851e-03
       O  3.26156e-04 -1.34932e-03  1.80177e-03
       H -3.25010e-03 -7.64536e-03 -3.99999e-03
       H -3.33373e-03 -1.28576e-03 -4.55228e-03
       O -9.15384e-04 -1.59307e-03 -7.60649e-04
       H -4.07720e-04  6.40638e-04  5.30199e-03
       H  1.30636e-04  1.61401e-03  9.53488e-04
       O -4.64475e-04 -1.49922e-03  5.22337e-04
       H  2.86244e-03  7.30290e-03  5.30387e-03
       H -1.29232e-03  2.66604e-05 -4.19210e-03
       O -8.91292e-04 -8.90932e-06 -8.90465e-04
       H -3.62460e-03 -3.28573e-03 -2.33558e-03
       H  4.65736e-03  3.98647e-03  1.97981e-03
       O  6.36948e-04 -5.38531e-04  1.36258e-04
       H  3.58413e-04  2.39304e-03  4.57359e-03
       H -3.07549e-03 -2.22378e-04  1.86698e-03
       O -3.86579e-05  2.05683e-03  2.49252e-05
       H -6.09171e-03 -1.20650e-03 -1.42150e-03
       H -2.70245e-03 -1.56432e-03 -1.84539e-05
       O  2.05404e-04  4.52437e-04  7.33126e-04
       H -4.00474e-03 -1.38574e-03 -6.46762e-03
       H  8.80820e-05 -7.22817e-03  1.46113e-03
       O -3.31413e-04  4.89952e-04  1.39482e-03
       H  6.85724e-03 -3.47443e-03 -5.48013e-03
       H -8.17294e-03 -6.01699e-03 -1.60202e-03
       O -6.19453e-04 -5.12817e-04  6.11380e-04
       H  2.55328e-03 -2.00190e-03 -6.16013e-03
       H  1.78483e-03  3.79337e-03  3.94185e-03
       O  1.40640e-03  3.05110e-04  6.21927e-04
       H -4.27298e-03 -3.08990e-03 -2.67485e-03
       H -4.34710e-03 -1.84453e-03 -4.87664e-03
       O -3.60777e-04 -9.04080e-04 -1.45945e-03
       H  8.21557e-05  2.03985e-03  3.99834e-03
       H -1.35807e-03 -8.39766e-04  6.55388e-03
       O  1.05008e-03  6.00338e-04  2.47983e-03
       H -2.46160e-04  2.69073e-04  6.86716e-04
       H  3.07352e-03  1.16911e-03 -4.25436e-03
       O -3.32583e-04  5.86530e-05  5.24220e-04
       H  3.71681e-03  5.93482e-04  7.04829e-03
       H -5.51568e-03  3.02206e-03 -3.23796e-03
       O -1.40883e-03  1.71514e-04  2.32130e-04
       H  2.51591e-05 -9.55451e-04 -5.09970e-03
       H -1.56485e-05 -1.49619e-04 -7.01965e-03
       O -9.51709e-04  4.54381e-04 -5.21532e-04
       H -7.71208e-03  3.61547e-04 -3.58868e-03
       H  1.58186e-03 -3.14139e-03  6.70506e-03
       O -2.21627e-03  1.17122e-05  4.80070e-04
       H -1.69117e-03  1.40746e-03 -1.31547e-03
       H  4.15810e-03  1.15084e-03 -6.09864e-04
       O  1.33437e-03 -5.81732e-04  2.55682e-04
       H -1.53390e-03 -1.27881e-04 -6.44940e-03
       H -4.62613e-04  5.13982e-03  5.92582e-03
       O -1.52340e-03  2.06855e-03  1.76325e-03
       H -4.22979e-03  3.24972e-04  7.78376e-04
       H -4.42065e-03  1.93798e-03 -4.36984e-03
       O -1.65655e-03  2.80950e-04  4.37600e-04
       H -3.80635e-04 -2.50198e-03 -9.61934e-04
       H  1.74701e-03  1.40567e-03  1.65233e-03
       O -1.46007e-03  1.48222e-04 -1.19008e-03
       H  8.67676e-04  3.85095e-03  1.49831e-03
       H -1.14975e-03  8.96596e-04  5.34752e-03
       O  1.13947e-04  1.00863e-04  8.69484e-04
       H  4.66587e-04  9.68225e-03 -3.38972e-03
       H -1.36819e-02  6.23208e-04 -1.63272e-03
       O  3.75438e-04 -3.13913e-04  4.86289e-04
       H -1.59093e-03  4.40494e-03  7.14279e-03
       H  3.69098e-03  9.27655e-04  6.15903e-03
       O  9.35092e-04 -8.61733e-04  1.31195e-03
       H  9.60513e-06  6.03052e-03 -5.19165e-03
       H  4.69718e-03  1.16619e-03  1.47831e-03
       O  5.81954e-04 -1.29231e-04 -1.11976e-03
       H  3.23108e-03  7.31553e-04 -5.81210e-04
       H  3.20149e-03 -1.54855e-04 -3.51973e-03
       O  1.13653e-03 -3.98873e-04 -6.62700e-04
       H -1.73045e-05  1.15868e-03  4.57795e-03
       H  6.08651e-03 -1.28698e-03  1.26582e-03
       O  3.55378e-04  1.91783e-04 -4.05343e-04
       H  5.38419e-04  2.64772e-03  1.76465e-03
       H  4.35126e-03  5.75004e-03 -4.26642e-03
       O  1.48041e-03 -1.05061e-03 -2.75708e-04
       H -2.61413e-03 -2.18711e-03  1.22165e-03
       H  2.51583e-03 -6.18282e-03  5.37856e-03
       O -1.07072e-03 -4.19555e-04 -9.62727e-04
       H -4.97561e-05 -1.48851e-03  2.72439e-03
       H  6.72652e-03  1.84041e-03 -3.29795e-03
       O -2.75803e-05  1.72384e-04 -3.44362e-04
       H  4.17641e-03  1.80930e-03 -4.02963e-04
       H -6.16526e-04 -2.71951e-03 -4.33146e-03
       O -1.16417e-04 -3.64524e-04 -4.26772e-04
       H  3.62913e-03 -4.53523e-03 -1.68436e-04
       H -1.95142e-03  2.13547e-03 -1.88675e-03
       O  6.47248e-04  8.67249e-04  7.03749e-04
       H  7.64904e-03 -1.45128e-04 -2.92784e-03
       H -4.72050e-04 -1.10665e-03 -5.52008e-03
       O -3.07189e-04 -1.13816e-03  5.41374e-04
       H  9.71440e-04  2.09072e-03  5.19319e-03
       H  7.06847e-03  5.05114e-03  1.05420e-03
       O  3.98020e-05  1.80413e-04  2.14399e-04
       H  3.85702e-03  1.41930e-03 -2.11804e-03
       H -4.12164e-03  4.52048e-03  9.87937e-05
192
# CELL(abcABC):   16.99620    29.43815    27.67315    90.00000    90.00000    90.00000  Step:          10  Bead:      28 velocities{atomic_unit}  cell{atomic_unit}
       O -3.31962e-04 -8.14554e-04  2.43806e-04
       H  8.52605e-04  2.67408e-03 -2.01989e-03
       H  1.45616e-03 -7.10507e-03  2.15220e-03
       O  1.04108e-03  6.02393e-04  2.30555e-04
       H -6.45992e-03 -5.28123e-03  1.87074e-03
       H  2.54715e-03 -1.95323e-03  1.79152e-03
       O -1.75579e-04 -1.01905e-03 -5.09608e-05
       H  1.87647e-03  1.93019e-03 -1.67172e-03
       H -5.24499e-03  2.35114e-03 -3.09176e-03
       O  5.05047e-04  2.21930e-04  2.69109e-04
       H  1.33895e-03  1.15523e-03 -3.91348e-03
       H -9.13876e-04 -6.46784e-03  4.74212e-04
       O  1.22155e-03  1.10121e-04 -9.01300e-04
       H -1.72295e-03  6.35543e-04 -2.26802e-03
       H -3.50008e-03  4.73660e-03 -8.33483e-04
       O  1.31977e-04  3.98605e-04  1.52867e-04
       H  1.99376e-03  4.46829e-03  5.22989e-03
       H -3.74346e-04  2.45135e-03 -3.58454e-03
       O  1.49015e-03  4.49515e-04 -4.38704e-05
       H  1.79263e-03  1.20436e-03 -3.62794e-03
       H  1.85288e-03  2.40069e-03 -1.27760e-03
       O  1.08428e-03  1.28937e-03 -1.26884e-03
       H -4.26986e-03 -1.40637e-03 -5.05294e-03
       H -4.75366e-03  1.70484e-03  1.11577e-03
       O  5.96110e-06  5.12696e-04 -7.41697e-04
       H  5.27523e-04 -2.29945e-03 -2.80408e-03
       H -3.68301e-04 -1.51369e-03 -4.03398e-03
       O -1.28162e-03 -6.20812e-04  9.60763e-04
       H  5.59714e-03 -1.02348e-03  1.98702e-03
       H -9.65593e-04  5.90195e-03  2.62015e-03
       O -3.75904e-04 -5.02421e-05 -1.09762e-03
       H  6.16162e-03 -1.11740e-03 -9.09228e-04
       H  2.33969e-04  7.46693e-04 -1.99942e-03
       O  1.89083e-04  8.65554e-05  3.67166e-04
       H -2.71470e-03  9.34271e-04 -1.31563e-04
       H  5.74455e-04 -2.41366e-03  1.41757e-04
       O -3.07105e-05 -5.55254e-04  2.09277e-04
       H  2.09241e-03  1.38849e-03 -6.05666e-03
       H  6.22658e-04  8.82209e-04  3.37171e-03
       O  1.28379e-03 -5.22038e-05 -3.55427e-05
       H  6.94218e-03 -1.00805e-03  5.18952e-03
       H -1.19754e-03 -1.35543e-05 -4.29126e-04
       O  1.06702e-03  9.83241e-04 -1.84355e-03
       H  3.15415e-03  1.97288e-04 -2.07015e-03
       H -3.17827e-03  4.62485e-03 -1.38448e-03
       O  5.89672e-04 -1.27088e-03 -1.84320e-04
       H -2.63603e-03 -3.57619e-03 -2.61009e-05
       H  1.83328e-03  6.97988e-04  5.96882e-03
       O -2.12294e-03  7.41229e-05  7.19425e-04
       H -2.26827e-03 -8.71277e-04 -7.15275e-03
       H  5.67034e-03 -4.29572e-04 -5.35250e-03
       O -1.74171e-04 -5.98241e-04 -6.30591e-04
       H  6.41081e-03 -3.10886e-03 -1.69105e-03
       H  3.42665e-03  1.34276e-03  2.06448e-03
       O  2.12535e-04  1.05715e-03 -7.51708e-04
       H  4.33408e-03  4.92826e-03  3.59540e-03
       H  2.48158e-03  2.53761e-03  2.79898e-03
       O -2.24841e-04  2.65462e-04 -1.33331e-03
       H  5.82622e-03 -1.94273e-03  5.26862e-04
       H  2.33428e-03 -2.50726e-03  3.98270e-03
       O -4.72746e-04 -2.92778e-04 -1.66587e-03
       H  4.45083e-04  9.72895e-03 -1.32253e-03
       H  3.84930e-03 -1.28749e-03 -4.79751e-03
       O -1.65617e-03  1.81952e-03  9.58061e-05
       H -3.82728e-03 -8.89300e-04 -7.30977e-03
       H  9.86280e-03 -6.94148e-03 -3.65788e-03
       O  8.31946e-05  1.37556e-05 -6.14325e-04
       H  6.37735e-03 -9.67356e-03  6.61293e-03
       H  3.47875e-04 -5.93004e-03 -7.80774e-03
       O -9.22323e-05  1.48384e-04 -5.26718e-04
       H -4.18119e-03  2.83446e-03  5.95752e-03
       H  4.22511e-03  2.07095e-04 -7.02755e-05
       O  7.02292e-04 -2.32449e-04  1.33526e-04
       H  1.43773e-03 -5.21045e-03 -1.15131e-03
       H -2.36465e-03  2.28515e-03  8.78694e-04
       O -8.41025e-04  5.13003e-04  9.44055e-04
       H -2.21744e-03  3.83593e-03 -3.26138e-03
       H  4.31741e-03  7.97480e-04  5.68306e-04
       O  3.13919e-05  3.48539e-04  1.74219e-05
       H  8.91375e-03 -1.27880e-03  3.41200e-03
       H  2.25651e-03 -1.79208e-03  2.55925e-03
       O  1.16042e-03 -1.82534e-03  8.90800e-04
       H -4.39654e-04 -1.21927e-03 -2.97114e-04
       H -1.82963e-03  1.22368e-04 -1.53099e-03
       O -7.73861e-04  7.33006e-04  1.08705e-03
       H -4.21688e-03 -4.46033e-03  6.07838e-03
       H -2.11604e-03  1.91644e-03  3.78089e-04
       O  1.25562e-03 -6.03596e-04 -6.82093e-04
       H -2.55734e-03  2.04260e-03  4.66060e-04
       H  1.80272e-03 -3.28665e-04 -1.41100e-03
       O -3.28961e-04 -1.92758e-04 -4.18593e-04
       H -1.55188e-03  2.92064e-03  1.42657e-03
       H  3.54262e-03  4.74750e-03 -3.34168e-04
       O  6.84693e-04  1.37829e-04  8.40669e-04
       H  2.47470e-03  3.20231e-03  6.07481e-03
       H -7.23668e-04  5.11694e-04 -2.15058e-03
       O -9.42810e-04  5.41963e-04 -8.33945e-04
       H -3.29686e-03 -5.49163e-03  2.12833e-03
       H -2.66655e-03 -5.64852e-03 -3.84728e-03
       O  1.09221e-03  9.40502e-04 -1.08835e-03
       H  2.02881e-03 -4.58807e-03 -1.30345e-03
       H -7.28043e-04  1.30004e-03 -2.63317e-04
       O  1.50544e-03 -1.80002e-03 -3.03766e-04
       H  5.21662e-03  1.71451e-04 -5.50168e-04
       H -2.15133e-03  1.16541e-03  1.30029e-03
       O  1.69808e-03  2.70059e-04  1.16557e-03
       H  1.27481e-03 -7.55131e-03  2.09338e-03
       H -1.35267e-04  3.40920e-03 -3.32421e-03
       O  2.13766e-03 -7.14758e-04  2.67307e-04
       H -3.24724e-03  2.51100e-03  6.07218e-03
       H  5.01043e-03  2.50715e-03  2.79880e-03
       O -5.54963e-04  3.31545e-05 -8.28782e-04
       H  6.76337e-03  2.11812e-03  3.62424e-03
       H -1.34728e-03 -1.21545e-03 -1.32363e-03
       O -9.79401e-04 -5.09881e-04 -1.50577e-03
       H  7.78898e-04  2.17558e-03  1.17807e-03
       H  3.17190e-03  7.04076e-03 -2.69279e-03
       O -6.04927e-04  7.78554e-04  4.71929e-04
       H -6.03444e-03 -2.75443e-03  1.25876e-03
       H  1.92238e-03 -2.82789e-03  5.87916e-03
       O  5.40497e-04  7.50206e-04 -5.43948e-06
       H  7.64424e-03  3.30542e-03 -3.72617e-03
       H  2.71958e-03 -9.88624e-04  3.55166e-03
       O  5.89383e-04 -6.65076e-05 -9.59184e-05
       H -1.94043e-03  2.01312e-03  8.40545e-04
       H  6.08545e-05 -2.41283e-03 -6.76744e-05
       O  3.79025e-04  8.12307e-04  3.87745e-04
       H -6.42807e-04  1.25095e-03 -3.51291e-03
       H -6.75473e-03  8.78960e-03  2.86425e-04
       O -5.45591e-04  1.14630e-03 -5.92101e-04
       H  4.50893e-03 -4.34871e-03  1.66647e-03
       H  1.14196e-04  1.37842e-03 -2.25396e-04
       O  2.83294e-04  1.02099e-03 -1.48620e-03
       H  3.77128e-03  6.47837e-03  2.27444e-03
       H -2.40939e-03 -1.98189e-03  1.32935e-03
       O  3.31067e-04  2.31368e-05 -2.68024e-03
       H  5.46979e-03  9.71404e-03 -4.78939e-03
       H  8.64737e-04  5.71017e-03 -2.41793e-03
       O -1.92768e-04  1.32326e-04 -1.09703e-03
       H -9.91467e-03  2.09729e-04 -4.26337e-03
       H  1.73623e-03 -3.70535e-04 -1.02866e-02
       O  9.72460e-05 -2.24390e-04 -1.27987e-03
       H  6.09054e-04  5.34712e-04  2.98263e-03
       H  3.53950e-03  6.08392e-04  2.92407e-03
       O -5.09796e-05 -3.28253e-04  7.62805e-04
       H  6.06214e-04  6.04823e-04 -2.87942e-03
       H -3.54529e-03  3.20932e-03  8.91970e-03
       O -1.66016e-03 -1.31887e-03  7.49465e-04
       H  6.49422e-03 -2.32730e-03  2.25969e-03
       H -3.53795e-03 -1.50873e-03  2.57108e-03
       O  2.93035e-04  3.26595e-04  2.02840e-03
       H -1.77547e-03 -6.17405e-03  6.23719e-03
       H  4.72630e-03 -4.67822e-03  9.16398e-04
       O  9.34486e-04 -2.03810e-04 -1.26497e-03
       H  6.33309e-04 -6.91048e-03  2.19925e-03
       H  6.55687e-04 -4.90162e-06 -3.14618e-03
       O -1.69592e-04  9.74687e-04  6.66586e-04
       H  8.88616e-04 -3.42407e-03  2.86520e-03
       H  2.18074e-03  3.44889e-03 -1.25064e-03
       O -1.28146e-03 -1.03015e-03  9.70489e-04
       H -3.05191e-03 -1.04640e-04  8.97642e-04
       H  3.78919e-03  3.09006e-03  1.03041e-03
       O  7.07398e-04 -1.02539e-03  6.51634e-04
       H  4.56662e-03  2.99946e-03  8.32147e-04
       H  1.10790e-03  2.35333e-03 -5.28822e-03
       O  1.67682e-03  8.51746e-04  1.23053e-03
       H  5.07372e-03 -2.30995e-03  1.34579e-03
       H  5.21441e-03  1.30867e-03 -1.58493e-03
       O -1.16967e-03 -6.36960e-04  1.11300e-03
       H  4.45427e-03 -6.06989e-03  1.13709e-03
       H -8.75278e-04  8.32363e-04 -4.99355e-03
       O  8.29049e-04  7.87546e-04 -4.10278e-04
       H  1.72905e-03 -4.76837e-04 -9.25825e-03
       H  1.00473e-03 -4.33454e-03  2.50527e-04
       O  5.22144e-04 -1.97788e-04  9.53169e-05
       H -2.31006e-04 -3.13244e-03  4.46809e-03
       H  4.43190e-03  1.94788e-03 -1.35181e-03
       O  5.49082e-04  9.24651e-04  1.22124e-03
       H  1.63188e-03 -4.28450e-03 -5.81122e-04
       H -2.74606e-03  2.78321e-03 -3.96927e-03
       O  7.79432e-04 -5.93988e-04  2.61224e-04
       H -2.70234e-03  8.85289e-04  3.49339e-03
       H -1.53502e-03  2.39784e-03  3.91285e-04
       O  2.75832e-04 -2.05404e-04 -5.57751e-04
       H  8.64719e-04 -1.97552e-03  6.61162e-04
       H -2.03053e-03  1.38646e-03 -5.27194e-03
       O  9.72536e-05 -4.45933e-04 -1.13535e-04
       H -2.51972e-03 -7.62101e-04 -3.12740e-03
       H -1.03868e-03  2.35089e-03 -3.59743e-04
       O -8.85551e-04 -8.69523e-04 -1.80817e-03
       H -7.68878e-03 -1.52388e-03  5.87240e-03
       H -3.98116e-03  9.92464e-04  5.37829e-03
192
# CELL(abcABC):   16.99620    29.43815    27.67315    90.00000    90.00000    90.00000  Step:          20  Bead:      28 velocities{atomic_unit}  cell{atomic_unit}
       O -7.51220e-04 -3.35945e-04  8.25882e-05
       H -1.36800e-03 -5.34121e-03  6.30499e-04
       H -6.37106e-03  4.92142e-03  3.68064e-03
       O -4.75471e-04 -1.85980e-03 -1.14908e-03
       H  5.46044e-03 -3.30768e-03 -6.37781e-04
       H  4.11437e-03 -5.03673e-04  3.73991e-03
       O  6.11297e-04 -3.34633e-04 -7.43601e-04
       H  6.13308e-03 -2.19682e-03 -2.29059e-03
       H  1.24024e-03  3.76907e-03 -2.65161e-03
       O  6.35580e-04  2.01600e-04  5.72825e-04
       H  5.73689e-03  1.05626e-03 -6.11555e-03
       H -6.47013e-03  3.46924e-03  4.51205e-05
       O -1.18558e-04  9.78289e-05  1.59940e-03
       H  3.77534e-03 -1.68023e-03 -9.82994e-05
       H  2.21872e-03 -9.85557e-04  3.22699e-03
       O  1.79727e-04  4.19517e-05 -3.93330e-05
       H -4.78050e-04  3.32874e-03 -3.23896e-03
       H -2.37572e-03 -1.43881e-03 -5.83556e-04
       O  2.02269e-03  3.85099e-04  8.98029e-04
       H  3.78578e-04  4.69172e-03 -1.25211e-02
       H  2.20759e-03  4.07311e-03 -6.38239e-04
       O  6.06993e-04 -1.31312e-03  4.27502e-04
       H  3.54648e-03  3.00343e-03  1.65513e-03
       H -1.53966e-03  3.80129e-03 -3.13136e-03
       O -1.13450e-04  9.35988e-04  5.50716e-04
       H -4.69392e-03  5.19254e-03 -6.70621e-04
       H -8.57631e-04 -4.66792e-03 -3.17528e-03
       O  1.24044e-03 -8.40454e-04 -2.83392e-04
       H -7.10749e-03  1.40970e-03  1.27759e-03
       H -3.58683e-04  2.53705e-03 -8.84459e-04
       O -2.31442e-04  3.02098e-04 -4.12525e-04
       H -1.62041e-03  3.40401e-03 -1.50043e-03
       H  2.58932e-03 -3.70975e-04 -9.92514e-04
       O  2.20224e-05 -3.25952e-05 -2.37910e-05
       H  2.88545e-03 -7.62064e-03 -6.98161e-03
       H -5.50139e-03 -1.76807e-04  4.34414e-03
       O -6.85927e-04 -1.92636e-04  5.33827e-04
       H  2.19887e-03  6.00519e-04  1.47265e-03
       H  5.44811e-03  1.19091e-03  4.40698e-03
       O -3.29421e-04  8.45873e-04 -1.04267e-03
       H  2.75564e-03  4.69499e-06  4.91059e-04
       H  2.71447e-03  7.83310e-04  3.36939e-03
       O -9.15714e-04  4.85444e-04  4.90174e-05
       H -7.15859e-04 -1.02798e-02 -1.75370e-03
       H  4.21414e-03  7.06589e-03  5.71683e-03
       O -1.21759e-03  3.73746e-04 -1.75772e-03
       H -7.31124e-04  2.22678e-04 -3.77649e-03
       H -4.36622e-04 -2.30306e-03 -2.99924e-03
       O -2.47639e-04 -7.12171e-04 -4.48774e-04
       H -1.57813e-03 -2.05622e-03 -1.30260e-03
       H -6.25756e-04 -8.64739e-03 -3.04373e-03
       O  7.97273e-04  1.00269e-04 -6.63064e-04
       H  5.54372e-04  2.57599e-03  4.32013e-03
       H -8.08152e-03 -2.13474e-03  3.48473e-03
       O  8.21871e-06  8.96697e-04  5.00449e-04
       H -2.09749e-03 -4.31802e-03 -1.70433e-03
       H  3.89879e-03  2.11106e-03  4.31537e-04
       O -7.86867e-04 -7.91158e-04 -1.81333e-03
       H  3.01801e-04 -2.20749e-03 -4.14739e-03
       H -5.74287e-03 -1.69679e-03  4.99073e-03
       O -4.36040e-04 -2.43624e-04  1.62566e-03
       H  3.60785e-06  1.89482e-03  8.56562e-03
       H  1.88710e-03  1.81100e-03 -5.34667e-04
       O -4.62873e-04  1.71637e-03 -1.63189e-03
       H -7.33513e-04 -7.05958e-03  3.96254e-03
       H  3.40192e-03  2.26678e-03  1.04310e-03
       O  8.62559e-04 -7.95195e-04 -1.24184e-03
       H  1.92862e-03  4.88971e-03  3.46443e-03
       H -2.03555e-03  4.28236e-03 -1.89691e-03
       O -8.82668e-04 -1.53906e-03 -6.47945e-04
       H -2.07674e-03 -5.71486e-03 -8.77997e-03
       H  8.65095e-03  4.75108e-03 -2.05614e-04
       O  9.30537e-04 -6.09681e-04  5.19786e-04
       H  3.53124e-03  1.66080e-03  5.89891e-03
       H -4.11962e-03  9.05010e-04 -5.58140e-03
       O -5.22128e-04 -8.09591e-04 -6.39894e-05
       H -3.03271e-03  6.59594e-03 -9.98929e-04
       H -3.34273e-03 -3.44060e-04  5.91893e-03
       O -2.00954e-04 -1.22912e-03 -1.56388e-04
       H -2.40112e-04  3.97501e-03 -4.51095e-04
       H -3.02470e-03  3.35023e-04  3.39172e-03
       O -6.29623e-05 -1.27891e-03 -1.42642e-03
       H  2.77008e-04  7.26524e-03  1.43677e-04
       H  4.46180e-03  1.40649e-03  7.33652e-03
       O  6.95481e-05 -3.86829e-04 -3.51410e-04
       H -2.49605e-05 -1.26007e-03  3.32999e-03
       H -4.51783e-04  6.37310e-03 -2.38030e-03
       O  3.07064e-04  2.97669e-04  4.04149e-05
       H  3.70080e-03  1.78745e-03 -2.19996e-03
       H -9.16234e-03 -2.78470e-03  3.16017e-03
       O  3.69340e-04 -2.18733e-04 -4.25582e-04
       H -3.63825e-03 -2.61035e-03 -1.28834e-03
       H -1.79038e-03  2.36898e-03  9.02114e-04
       O -2.12151e-04  9.93461e-04  1.57383e-03
       H  1.90231e-03  6.02046e-03  3.67112e-03
       H -5.43489e-03 -1.82108e-03 -5.82638e-04
       O  1.30245e-03  2.42233e-03 -3.12768e-04
       H -7.40024e-03  9.16550e-04  1.68099e-03
       H  2.73312e-04  1.01229e-03  4.35473e-03
       O  3.94224e-04  1.51274e-05 -1.26873e-04
       H  1.65625e-03  4.13143e-04  3.07181e-04
       H -1.70709e-04 -7.94854e-03  1.40260e-03
       O  1.47944e-03  1.83432e-03  1.05739e-03
       H  1.96369e-03 -8.74201e-03 -1.16197e-03
       H -1.05421e-02 -3.06005e-03 -4.23515e-03
       O -1.76746e-03  3.46375e-04 -3.29010e-04
       H -1.78111e-03  9.67584e-04 -5.11860e-03
       H  1.20060e-03  7.49992e-03  1.49842e-03
       O -4.97811e-04  1.63875e-04 -7.25880e-04
       H -2.18452e-03  3.84080e-03  5.01633e-03
       H  2.15076e-03 -1.98358e-03 -2.47097e-03
       O -1.68077e-03 -8.19416e-04  2.05269e-03
       H -5.95431e-03 -6.68202e-03 -2.23186e-03
       H -3.93252e-03 -2.53673e-03 -2.51985e-03
       O  3.76213e-04  2.62677e-04 -7.53259e-04
       H  4.15587e-03  1.79217e-03 -7.72458e-04
       H  2.21601e-03 -1.27597e-05 -1.48538e-03
       O  2.25589e-05 -1.39390e-03  7.31041e-04
       H  1.00604e-03  6.71058e-04  7.78223e-04
       H -2.11974e-03  3.12385e-03  3.31886e-03
       O -7.93245e-04 -1.03814e-03 -1.32328e-03
       H -9.49735e-04 -3.59421e-03  1.82621e-03
       H  3.87725e-03  3.97785e-03  4.52295e-03
       O  9.20927e-04  5.01967e-04  1.37376e-03
       H  4.51025e-03  6.88019e-04 -2.24738e-03
       H -6.81909e-04 -1.93583e-03 -2.57357e-03
       O  1.03318e-03  1.05815e-03  7.79399e-04
       H -2.02737e-04 -1.80649e-03  1.90839e-03
       H -2.14587e-04  8.89164e-04  3.82294e-03
       O -1.19115e-03  1.22132e-04  9.55171e-05
       H  5.43568e-03 -3.80199e-03  2.09825e-03
       H  3.83384e-03  3.65379e-03 -5.77600e-03
       O  9.34331e-04 -5.40403e-04  5.09363e-04
       H  1.71688e-03 -4.40911e-03  1.75565e-03
       H  3.82138e-03 -1.64364e-03  3.30007e-03
       O  8.86158e-04 -3.15097e-04  1.32049e-03
       H  3.50154e-05 -3.40619e-04  6.32847e-04
       H  3.29461e-03  3.82817e-03 -9.98407e-04
       O -1.20946e-03 -3.98840e-05 -9.89230e-04
       H  1.89887e-05 -2.04385e-03  2.19826e-03
       H  1.62700e-04  6.06130e-03  2.16117e-03
       O -2.11181e-03  9.20364e-04  1.51837e-04
       H -4.46303e-03  8.59922e-03 -7.61240e-03
       H  4.62326e-03  6.63904e-04 -3.20461e-03
       O -4.79513e-04  6.05359e-05 -1.22521e-04
       H -1.68835e-03  8.61426e-03 -5.52497e-03
       H  4.73062e-03 -2.40644e-03  3.56797e-05
       O  3.46446e-04  1.26244e-03 -7.12219e-04
       H  1.22723e-03 -3.47545e-04 -2.16361e-04
       H -2.71567e-03  2.00880e-03  2.02659e-03
       O  4.20938e-04 -1.26405e-03  1.32808e-03
       H -4.26017e-03  5.73613e-03  1.67423e-04
       H -2.14624e-03 -7.67281e-04 -4.17740e-03
       O  1.55474e-04  2.14491e-04  2.89595e-05
       H -4.71827e-03 -4.99237e-03 -3.44448e-03
       H  6.63178e-03  5.80132e-03  5.21406e-03
       O  1.50730e-03 -1.12727e-04  1.91702e-03
       H  3.62393e-04  3.87667e-03 -4.83418e-03
       H  3.92277e-03 -9.19609e-04  6.09629e-03
       O  8.70811e-04 -8.80361e-04  6.19642e-04
       H -2.82105e-03 -1.14571e-03  2.29973e-05
       H -2.06951e-03 -1.30052e-03  6.92813e-04
       O -7.45036e-04  8.42535e-05 -4.95138e-04
       H  1.07328e-02 -5.01092e-03  1.09520e-03
       H -4.90136e-03  3.33410e-03  7.18564e-03
       O  2.03295e-04 -1.42985e-05  3.81931e-04
       H -4.96428e-03  4.52414e-04 -4.04617e-04
       H -3.54910e-03 -1.04299e-04 -6.71982e-03
       O  7.46883e-04  3.41670e-04 -4.54139e-04
       H -6.12085e-04  1.93369e-03  4.07826e-03
       H  1.53269e-03 -7.78567e-03  3.52107e-03
       O  2.25663e-04 -8.75142e-04 -3.35008e-04
       H -3.06223e-03  9.05188e-04  1.04029e-03
       H -1.95653e-03  1.82380e-03 -1.52318e-03
       O -1.10227e-03  4.17739e-04 -5.01937e-04
       H -2.16747e-03 -1.43354e-03 -2.36555e-03
       H  5.04332e-03 -3.65397e-03 -1.39240e-03
       O -3.22270e-04  6.11774e-04 -2.89056e-04
       H -2.86764e-03  2.80434e-03 -1.47607e-03
       H  1.01430e-03  9.26545e-03 -4.89804e-03
       O -8.71669e-04 -9.93441e-05  1.06967e-03
       H -6.79617e-03  7.95368e-04  2.25855e-04
       H -5.59123e-04  1.76192e-03  8.13421e-04
       O  1.36385e-04  1.94884e-04 -8.08923e-04
       H -2.88326e-03  1.35578e-03  6.16405e-04
       H -4.40670e-03 -2.20704e-03 -7.12421e-03
       O  1.44604e-03 -4.17832e-04 -8.44084e-04
       H -2.45169e-03  3.28179e-04 -1.04690e-04
       H  7.26634e-03 -5.62878e-03 -5.46512e-03
       O -1.09543e-03  9.91373e-04 -3.59929e-04
       H -1.62814e-03  1.41130e-03 -2.73003e-03
       H -6.50025e-03 -1.19222e-03  1.23056e-03
192
# CELL(abcABC):   16.99620    29.43815    27.67315    90.00000    90.00000    90.00000  Step:          30  Bead:      28 velocities{atomic_unit}  cell{atomic_unit}
       O -4.22581e-04 -3.57105e-04 -6.43741e-04
       H -1.30783e-03  4.45805e-03  3.82698e-04
       H -2.43080e-03 -2.41293e-03 -4.64513e-03
       O  6.82432e-04 -1.13483e-03  1.46903e-04
       H  1.99778e-03 -4.21466e-03 -5.60028e-03
       H -3.10894e-04 -8.37659e-04 -1.94285e-03
       O  2.40995e-04 -8.45807e-04 -7.18197e-04
       H -1.24623e-03 -2.46126e-03  4.56185e-03
       H  5.37224e-03 -3.05697e-03 -2.28375e-03
       O  7.31391e-04  8.69531e-04  1.76218e-03
       H -1.33190e-03  3.21352e-03  8.34626e-03
       H  2.00566e-03  4.19568e-03  5.68365e-03
       O  1.29444e-04  7.31004e-04 -2.59845e-04
       H -2.93365e-03 -4.16976e-04 -3.91297e-03
       H  1.26895e-03 -1.10275e-03 -6.87825e-03
       O -1.08806e-03  1.02328e-03 -2.68289e-03
       H -2.15910e-04 -6.55253e-03 -8.49898e-03
       H  7.49995e-05 -6.97299e-04 -2.02635e-03
       O  3.24661e-04 -9.05824e-04  8.98840e-04
       H -4.59092e-03  2.39788e-03  9.33796e-03
       H -2.11026e-03  6.53811e-03  1.90405e-03
       O  7.99599e-04 -8.85153e-05 -1.75271e-04
       H  1.07512e-02 -6.53571e-04  5.17898e-03
       H  5.30573e-03  7.62549e-03  2.91088e-03
       O  3.41372e-04  1.87865e-03 -8.13587e-04
       H -3.02136e-03  1.20274e-03  2.16460e-04
       H -1.88331e-03  2.96400e-03 -4.83009e-03
       O  9.19171e-04 -9.64719e-04  1.52190e-03
       H  4.39158e-03  2.46262e-03 -2.90760e-03
       H  5.71893e-03  2.75792e-03  6.09404e-03
       O  1.29298e-04 -1.01345e-03  6.17197e-04
       H -2.17456e-03  1.50634e-03  1.14057e-04
       H  1.13426e-03  2.36263e-03  2.63098e-04
       O -3.59608e-04 -2.25566e-04 -2.20832e-04
       H -2.96163e-03  1.63821e-03  2.95715e-03