192
# CELL(abcABC):   16.99620    29.43815    27.67315    90.00000    90.00000    90.00000  Step:           0  Bead:      13 velocities{atomic_unit}  cell{atomic_unit}
       O -1.13433e-04 -2.50677e-03 -1.10287e-03
       H -2.51984e-03 -7.89189e-04  9.98915e-04
       H  4.17232e-04 -7.42616e-03 -4.38782e-03
       O -4.73081e-05  5.18179e-05  4.39577e-04
       H -1.97192e-03 -7.55645e-04 -1.88754e-03
       H -1.58020e-03  3.98412e-04 -5.10766e-03
       O -2.68281e-04  1.44942e-04  8.28318e-04
       H -1.30761e-03  7.55075e-03  3.74276e-03
       H -1.36330e-04  1.35485e-03 -6.18060e-03
       O -5.26636e-04 -8.57453e-04  7.24510e-04
       H -1.01057e-03  3.57220e-03 -6.33254e-03
       H  5.19706e-04  1.76860e-03 -3.14902e-03
       O  3.48188e-05 -2.27665e-03  1.49169e-04
       H -7.99069e-04  3.98777e-03  4.67554e-03
       H  2.68593e-04  4.89350e-03 -2.39405e-03
       O -1.39360e-03  9.24100e-04 -2.20796e-03
       H  3.93488e-03  1.90437e-04 -8.74733e-03
       H  2.66594e-04 -7.09096e-03  2.44965e-03
       O  5.45620e-04  9.18702e-04  1.15176e-03
       H -1.52043e-03 -1.69604e-03 -4.20537e-03
       H -1.32446e-03  2.63863e-03 -7.65343e-04
       O  4.77536e-05  1.92095e-03  4.25151e-04
       H  1.08777e-03  2.02676e-04 -4.89898e-04
       H -1.05178e-03  7.13147e-03  4.03466e-03
       O -1.13946e-03  9.87149e-04  1.01878e-03
       H -8.45031e-04  4.17675e-03  4.06149e-03
       H -1.88264e-03 -2.90332e-03  9.33633e-04
       O  2.39115e-04  4.40035e-04  8.14491e-04
       H  2.13665e-03 -2.32894e-03 -1.11968e-03
       H -2.85471e-03 -6.73399e-03 -3.27468e-03
       O -8.35154e-04 -4.21677e-04 -3.98824e-04
       H -2.08720e-03 -1.02400e-03 -2.23657e-03
       H -3.07374e-03  1.42039e-05  7.21685e-04
       O  2.04787e-03  6.09596e-04  9.83236e-04
       H  7.08893e-03 -3.58531e-03  1.08710e-05
       H  6.39857e-03 -9.79253e-04  6.70161e-04
       O  9.23062e-04 -2.59264e-05  2.90719e-04
       H -6.89135e-03  1.55182e-03  4.53834e-03
       H  2.69448e-03 -2.65950e-04  1.20989e-03
       O -1.48376e-03  7.63823e-04  5.71195e-04
       H  1.94156e-03 -5.99633e-03 -3.98920e-04
       H  2.98505e-03  2.96678e-03  1.37947e-03
       O  4.33344e-04  1.07824e-03 -7.85854e-04
       H -4.93931e-03 -3.32146e-03 -3.64210e-03
       H  2.40851e-03  4.36619e-03 -2.08719e-03
       O  7.41373e-04  9.53605e-05 -3.05746e-04
       H -2.79153e-03 -1.22157e-04 -1.82562e-03
       H -6.04109e-04 -6.84935e-03 -2.05703e-03
       O -1.01157e-03 -1.41165e-03 -1.38266e-03
       H  4.09103e-03  5.32351e-03  4.77448e-03
       H  5.14217e-04  2.99429e-03 -3.15663e-03
       O -5.01136e-05 -3.65432e-04 -3.93454e-04
       H  5.62783e-03  4.90664e-04 -3.68206e-03
       H -4.89479e-03 -2.75861e-03  1.07080e-03
       O  1.38973e-03 -5.67257e-04 -2.51780e-03
       H -9.54820e-04  2.69726e-03 -1.70206e-03
       H -1.75284e-03 -3.37668e-04  1.57139e-03
       O -2.14999e-03  1.50345e-03 -1.93656e-03
       H  4.35883e-03  7.14476e-03 -3.71939e-03
       H -1.88308e-03 -3.12770e-03 -7.89211e-03
       O  1.22811e-03 -9.94399e-04  8.96177e-05
       H  4.26726e-04  2.99652e-06 -2.29679e-03
       H -7.34524e-03  1.88572e-03  8.75747e-04
       O -6.74966e-04  5.23574e-04  2.49430e-03
       H -1.67996e-03 -4.03583e-03 -2.80767e-03
       H -7.39215e-04  1.37085e-03  5.35322e-03
       O -3.72385e-04  2.62597e-04 -1.19348e-03
       H -2.10069e-03  2.41784e-03 -5.45063e-03
       H  3.83368e-03  1.56725e-03  4.68611e-04
       O -7.62967e-04 -4.86378e-04 -3.68180e-04
       H -8.62809e-04  2.19002e-03 -4.59724e-03
       H -1.24545e-04  1.10896e-03  6.40061e-03
       O  5.88170e-04  7.93506e-04 -2.10784e-03
       H  3.24383e-03  1.65343e-04  4.24659e-03
       H  5.78846e-03 -7.47403e-04  7.64986e-03
       O  3.86278e-04 -1.11513e-03 -1.43479e-03
       H  1.80964e-04 -1.03968e-04 -3.23474e-03
       H -1.36117e-03 -5.19548e-03  4.15236e-03
       O -4.26569e-05  2.05787e-05  1.31216e-04
       H  2.48088e-03 -8.03117e-03 -1.60163e-03
       H -1.09814e-03 -4.19724e-03  6.08881e-03
       O  7.62256e-05  2.69335e-03 -8.45026e-04
       H  2.06760e-04 -1.28201e-03  1.89188e-03
       H -2.04390e-03 -5.81704e-03 -2.92530e-03
       O  2.21198e-03  4.03496e-04 -1.71008e-03
       H  9.75708e-04 -7.06388e-04  2.62301e-04
       H  2.31606e-03 -8.81680e-03 -4.46180e-03
       O -6.14354e-05 -1.06214e-03 -3.51942e-04
       H  4.12518e-04 -7.29608e-04  2.11071e-04
       H -6.40858e-05 -2.46834e-03 -3.14620e-03
       O  2.30709e-04  3.40292e-04 -6.45784e-04
       H -4.94504e-04 -1.93471e-03 -2.85343e-03
       H  1.67833e-03  1.68834e-03  3.23639e-03
       O -1.61129e-04 -1.16712e-03 -4.75997e-04
       H -6.53523e-03  3.54549e-03  4.12714e-04
       H -8.48708e-04  5.60523e-04 -1.52847e-03
       O  5.63958e-04 -6.67572e-05 -6.14617e-04
       H  4.75157e-03 -1.29200e-03 -1.22753e-03
       H  3.12031e-03  8.89773e-04  1.30351e-03
       O  3.32008e-04 -1.30135e-03  8.05402e-05
       H  7.90995e-03 -1.67338e-03  1.57626e-03
       H -1.25878e-03  5.04433e-03  2.89015e-03
       O -2.38951e-04  2.41417e-04  1.28176e-03
       H -2.48362e-04 -2.38518e-03 -6.51664e-03
       H -2.59504e-03 -1.27906e-03  7.28682e-04
       O -1.46304e-03  2.89477e-04 -9.00303e-04
       H  6.39949e-03  7.10117e-03  4.87806e-03
       H -3.25726e-03  1.90319e-03  1.10509e-03
       O -1.60698e-03 -1.14620e-03 -8.17100e-04
       H  2.72906e-03 -2.77082e-03  5.32616e-04
       H  3.48273e-03  6.36833e-03 -6.60028e-03
       O  7.99254e-04 -2.91690e-04 -1.23345e-03
       H -4.14006e-03  1.46859e-03  1.14620e-03
       H  3.25702e-03  3.13196e-04  7.63317e-04
       O -2.14354e-04 -1.29532e-03  9.47716e-04
       H -5.40578e-03 -1.50067e-03  1.13856e-03
       H  3.00527e-03  2.91732e-03 -2.26638e-03
       O  4.78933e-04 -4.32681e-04  1.99286e-05
       H  4.01374e-03  3.02021e-03  8.50770e-03
       H  5.35657e-03 -2.59588e-03 -1.17665e-03
       O -4.09640e-04 -1.22593e-03 -5.59844e-04
       H  5.49317e-04  7.53574e-04 -6.47965e-03
       H  6.89217e-04  2.95004e-03 -1.82598e-03
       O -6.32609e-04 -3.06949e-04  6.53962e-06
       H  2.32221e-03  3.47260e-03 -3.02691e-03
       H -2.81953e-03 -3.66463e-03 -2.79504e-03
       O  1.04627e-03  1.84156e-03  5.21869e-04
       H  2.66666e-03 -7.60564e-03 -1.26811e-03
       H -3.77162e-03  7.10305e-04 -4.98667e-03
       O -1.26158e-04 -3.02126e-05 -4.26323e-04
       H  5.74095e-03 -7.74453e-03 -1.80665e-03
       H  1.08023e-04 -4.86454e-04  9.86264e-04
       O -1.18765e-03  2.13999e-03  1.05956e-03
       H  5.98680e-03 -1.11749e-03  3.12095e-03
       H -2.35494e-03 -2.11277e-03  2.71457e-03
       O  1.03196e-03  1.77352e-03  1.76127e-03
       H  2.13214e-03  1.57722e-03 -2.62559e-04
       H -4.31479e-03  1.46587e-03  5.93921e-03
       O -1.12052e-03  4.18752e-04 -1.39774e-03
       H -4.92835e-03  7.08355e-03 -5.22394e-03
       H -4.02800e-05 -5.40579e-03  1.15803e-03
       O  5.02106e-05  9.38956e-04 -1.47551e-04
       H  7.72330e-04  2.39752e-03 -3.06288e-03
       H  2.80038e-03  3.67878e-03 -1.97142e-03
       O -7.39209e-04  3.90897e-04  1.92059e-04
       H  2.03984e-03  1.17593e-04  4.86361e-04
       H  9.57606e-04 -2.98470e-03 -1.12720e-03
       O -9.30024e-04  7.52416e-04  4.77604e-05
       H -5.81980e-03 -2.25284e-03 -3.15612e-03
       H  9.67757e-04  3.13365e-03 -1.07538e-03
       O -9.85545e-04  1.47397e-04  4.48430e-04
       H  4.28894e-04  7.42308e-03  2.40393e-03
       H -1.36312e-03 -3.99035e-03  2.33760e-03
       O  6.54933e-04  7.49836e-04  5.35631e-04
       H  2.32493e-03  3.66959e-03  3.13966e-03
       H -2.63204e-03  7.62322e-04 -4.53123e-03
       O -1.67463e-04  7.58044e-05 -6.56138e-04
       H  3.43647e-03 -3.13937e-03  2.22473e-03
       H  7.84641e-04 -1.94158e-03  1.90251e-03
       O -2.21564e-04 -3.35621e-05 -3.77522e-04
       H -3.01653e-03  2.44167e-03 -2.74524e-03
       H  9.77243e-04 -2.48537e-03 -2.69945e-03
       O -7.85417e-05  1.14956e-03  1.10982e-03
       H -6.11911e-03 -3.65055e-04 -1.41084e-03
       H  5.28026e-03  1.33055e-04 -1.43643e-03
       O  6.31584e-04  1.28609e-03  4.10666e-04
       H  8.51677e-04 -2.31133e-03 -1.42450e-03
       H  1.42215e-03 -1.98060e-04  6.36086e-04
       O -5.76509e-04 -1.05628e-03 -7.33366e-04
       H  2.77637e-03 -3.95619e-03 -2.92283e-03
       H  2.97749e-03 -4.67237e-03  1.88526e-03
       O  6.91437e-05 -8.55070e-04 -4.17411e-04
       H  1.10224e-03  1.29308e-03 -2.74300e-03
       H  5.05040e-03  2.61252e-03 -1.94621e-04
       O -5.56885e-04 -9.60602e-04  6.56258e-04
       H -1.56310e-03  1.60199e-03  2.22338e-03
       H  3.95722e-03  1.04965e-03  2.61617e-03
       O  1.29660e-03 -1.09045e-04  3.08762e-04
       H  2.20579e-03  1.26417e-03  4.21244e-03
       H  5.95462e-03 -2.64548e-03  2.29237e-03
       O -9.89531e-04 -8.34271e-04  5.67235e-04
       H  7.23542e-03  4.39390e-03 -9.44343e-04
       H  1.82981e-03  4.98213e-03 -3.27823e-03
       O -1.59477e-03  5.31618e-04 -5.17589e-04
       H  1.55639e-04 -2.71868e-03 -2.89835e-05
       H  1.38494e-03  5.83378e-03  6.37903e-04
       O -7.84508e-04  9.07771e-04 -8.40615e-04
       H -1.19639e-03  1.45759e-03  3.38771e-03
       H -5.37176e-03 -6.03121e-06 -3.63595e-03
       O  1.50175e-04 -8.76309e-05  3.38159e-04
       H -3.73054e-03  5.98082e-03 -4.26732e-03
       H -4.22324e-04  2.80758e-04  8.00894e-03
192
# CELL(abcABC):   16.99620    29.43815    27.67315    90.00000    90.00000    90.00000  Step:          10  Bead:      13 velocities{atomic_unit}  cell{atomic_unit}
       O -1.14505e-03 -1.69778e-03 -3.30877e-04
       H -1.19430e-03  3.25187e-03 -2.08048e-03
       H -4.83692e-03 -6.18970e-04 -3.39192e-03
       O  6.90583e-04  3.97348e-04  5.57016e-04
       H  8.37063e-04 -5.56712e-03  1.65953e-03
       H -7.91348e-03 -3.69138e-03  2.50121e-03
       O  5.16951e-04 -8.32625e-04 -7.31648e-04
       H -2.45940e-03  1.50960e-03 -7.01606e-03
       H  7.18535e-04  1.58341e-03  8.94979e-04
       O  9.85115e-04  2.61265e-04 -2.97674e-04
       H -2.31028e-03  3.94713e-03  2.96216e-03
       H  2.13948e-03  4.31287e-03 -2.16597e-03
       O  8.81372e-04 -5.13601e-04  1.16157e-03
       H -2.15780e-03  3.74985e-03 -2.40700e-03
       H  1.82131e-03 -2.71338e-03  1.71977e-03
       O  8.47805e-04  4.92258e-04  3.50927e-04
       H  3.23469e-03  1.06036e-03  5.39696e-03
       H  9.35989e-04  1.61827e-03 -7.21449e-03
       O -2.99557e-04 -1.62217e-03 -1.90486e-04
       H -2.21892e-03  8.10513e-04  1.70210e-03
       H -2.55158e-03  9.81996e-04  2.23217e-03
       O  2.55010e-04  2.41874e-03 -4.44627e-04
       H -2.07820e-03  2.80166e-03 -6.44281e-03
       H  3.46156e-04 -2.84154e-03  1.27438e-03
       O -2.46882e-04 -5.29388e-04  1.73397e-03
       H  4.67799e-03  4.41950e-03 -2.15344e-03
       H -2.99151e-03  3.60567e-03 -2.82811e-03
       O -2.34055e-04 -8.85541e-04  1.80012e-03
       H  4.14919e-03 -1.64481e-03 -3.82028e-03
       H -8.39250e-03 -2.03647e-03  4.29539e-03
       O -2.73624e-04  2.06635e-03  9.89433e-04
       H  3.01112e-03 -5.24969e-04 -1.31702e-03
       H -2.99086e-03  3.33085e-03 -6.44081e-03
       O -4.32398e-04  4.23988e-04 -1.21256e-04
       H -3.94122e-03 -2.73495e-04 -2.39503e-03
       H  4.07670e-03  5.01584e-04 -3.31282e-03
       O -2.80894e-04 -6.70631e-05 -2.71198e-04
       H -3.78019e-04 -7.77642e-04  6.76192e-03
       H  5.49077e-03 -9.02629e-03 -2.09676e-03
       O  3.45922e-04  3.45897e-04  3.40171e-04
       H -3.75703e-04  7.62398e-03 -7.87447e-04
       H  3.04045e-03 -1.33624e-03  1.14529e-03
       O -4.13994e-04 -2.99072e-04  4.08865e-04
       H  1.66955e-03 -6.65882e-04  2.39134e-04
       H  1.17803e-03  2.59181e-03 -2.53259e-03
       O  3.40473e-04  5.34617e-04  9.06468e-04
       H  1.97142e-03 -3.10991e-03 -9.00746e-04
       H  3.32912e-03  1.10447e-03 -2.88732e-03
       O  6.36911e-04  6.52582e-04  7.07358e-05
       H  3.61247e-03 -8.32632e-03  5.63335e-03
       H -5.31357e-03 -3.97562e-03  3.08309e-03
       O -5.07014e-04  3.33014e-04 -1.31932e-03
       H -1.60646e-03 -4.27135e-03 -4.65009e-03
       H  1.54395e-03  2.38116e-03  1.42219e-03
       O  3.21445e-04  4.82907e-04  7.10963e-04
       H -4.27998e-03  5.92174e-03 -4.21638e-03
       H  2.04276e-03 -5.90612e-04 -1.08269e-02
       O  8.03238e-04 -6.62289e-04  3.68807e-04
       H  1.72111e-03 -5.17372e-03 -1.86935e-03
       H  1.73816e-03  2.26489e-04  8.54074e-04
       O -7.93165e-04  1.93055e-04 -4.53147e-04
       H -3.63652e-03  1.45944e-03  1.31626e-03
       H -4.68733e-04  8.25304e-05  1.63793e-03
       O  1.68925e-04 -1.79780e-04  4.74731e-04
       H  3.60578e-03 -1.88632e-03  2.16865e-03
       H  4.07739e-03 -5.73374e-03  4.20706e-03
       O -1.13530e-03  1.01907e-03 -2.19093e-04
       H  2.13748e-03 -3.75764e-03  1.67297e-03
       H -2.44532e-03 -5.00568e-04  1.75144e-03
       O  6.00144e-04 -2.29439e-03 -7.11883e-04
       H  3.52315e-05  4.55887e-03 -2.67024e-03
       H -1.30981e-03  3.62466e-03 -3.04755e-03
       O  1.70148e-03  5.91239e-04  1.79667e-04
       H  5.10549e-05  3.84559e-03 -2.79860e-03
       H  1.94459e-03 -1.56788e-04  4.07239e-03
       O  1.00630e-03 -6.96013e-05 -1.57036e-03
       H -5.50726e-04  1.84064e-03  2.44755e-03
       H  3.46910e-04 -2.12772e-05 -2.74470e-03
       O -9.10673e-04  2.25369e-04 -2.44156e-04
       H  3.93316e-03  8.52809e-04 -1.06272e-02
       H  8.65845e-04 -4.54217e-03 -4.96695e-03
       O -8.53479e-04 -1.68346e-04 -7.17422e-04
       H -3.00925e-03 -1.35765e-03 -3.17056e-04
       H -1.43696e-03 -1.04166e-03  4.97196e-03
       O -6.50587e-04  5.82199e-04  3.19141e-04
       H  7.76600e-03 -1.00326e-03  6.06665e-04
       H  1.92130e-03  2.84459e-03  4.35798e-03
       O  3.93461e-04 -5.34243e-05 -5.59470e-04
       H  9.21390e-05 -5.49281e-03  2.64209e-03
       H  9.26280e-04 -6.58510e-04  5.10489e-03
       O -1.05968e-04 -4.23191e-04  8.06930e-04
       H  6.38130e-04  6.12234e-03  1.70517e-04
       H  2.13867e-03  2.96619e-03 -2.68160e-03
       O -7.24026e-05  2.40927e-04 -3.97232e-04
       H  3.41570e-03 -3.48257e-03 -2.43753e-03
       H  3.34977e-03  6.04644e-03  5.47908e-03
       O -4.40163e-04 -1.31041e-04 -6.22736e-04
       H  1.22299e-03 -1.04088e-03 -6.75120e-03
       H -5.45887e-04 -1.10058e-03  8.07054e-04
       O -5.88146e-04  2.33650e-04  8.79415e-05
       H -4.45506e-04  7.53610e-03  1.41199e-03
       H  1.33084e-03 -5.14407e-03  7.32565e-04
       O  1.80727e-03  4.71751e-04  5.44590e-04
       H -2.55466e-04 -1.00373e-03  9.80592e-04
       H  1.17692e-03 -2.33878e-03 -5.10175e-04
       O  3.14042e-04 -3.49447e-05 -2.58812e-04
       H  4.98427e-03 -3.66271e-03 -2.02650e-03
       H -1.04698e-03 -1.15615e-03  2.68136e-03
       O  6.67888e-04 -5.36900e-04 -4.33762e-04
       H  4.28761e-04 -4.86645e-04 -3.59552e-03
       H -1.48638e-03  1.80550e-03 -2.85721e-03
       O -8.97547e-04 -3.95559e-05 -1.32591e-03
       H  3.07466e-04  4.86575e-04  7.12596e-05
       H  1.86981e-03 -2.15325e-03 -6.79394e-04
       O  1.19877e-03 -1.98396e-04  1.44847e-03
       H -3.59544e-03 -1.00258e-02 -3.02072e-03
       H  2.65582e-03 -1.04915e-02 -4.70082e-03
       O -1.26022e-03 -2.18975e-03 -9.95255e-04
       H  3.62345e-03  3.99808e-03 -1.13673e-03
       H -4.00650e-03 -3.44556e-03  2.85199e-03
       O  1.10498e-03  5.75157e-04  1.59197e-04
       H  4.07702e-03 -2.04067e-03  2.50554e-04
       H  1.90803e-03 -4.66151e-04 -9.51709e-04
       O  3.22473e-04 -1.10052e-03 -3.37609e-04
       H  6.10271e-04 -1.62130e-03  4.36531e-03
       H  4.71132e-03  7.23070e-04 -2.56176e-04
       O  1.26039e-03  6.99754e-04  2.66252e-04
       H -1.00321e-03 -2.54678e-03 -2.20306e-03
       H -3.29168e-03 -6.24819e-03  1.35277e-03
       O -1.98085e-03  4.77764e-04 -1.72643e-03
       H -2.20160e-03  1.54003e-03 -3.75745e-03
       H  4.82859e-05 -3.81357e-04  1.19093e-03
       O  1.52469e-03  3.26557e-04 -5.21124e-04
       H  2.41508e-03 -1.38612e-03  2.70645e-03
       H  3.70796e-03 -1.78480e-03 -1.32554e-03
       O  2.04754e-03  1.01569e-03  3.08120e-04
       H -1.36413e-03  1.65011e-03  1.00683e-02
       H -1.14782e-04  1.88532e-04  2.57102e-03
       O  6.95686e-04  3.74961e-04 -7.20034e-04
       H -3.77093e-03  6.62050e-03 -1.09863e-03
       H -1.56780e-03 -3.77697e-03  7.68057e-04
       O  1.89193e-03 -2.22380e-03 -7.47110e-04
       H  3.14779e-03  4.88025e-03 -4.17352e-04
       H  8.32465e-04  2.57078e-03  3.09731e-03
       O -4.95698e-05 -1.00634e-04  1.30620e-03
       H  2.67435e-03  8.14439e-03 -2.43157e-03
       H  7.52629e-04 -3.62260e-03 -6.09664e-04
       O  8.23092e-04  7.69617e-04 -4.01256e-04
       H  2.44057e-03  2.19109e-04  2.87659e-03
       H  1.14975e-03 -1.54192e-03  3.29763e-03
       O -7.78670e-04  5.38398e-04  8.55869e-04
       H  5.78447e-04  3.15190e-04  4.87545e-03
       H  1.27396e-03  5.74645e-03  3.81894e-03
       O -4.31475e-04 -3.92837e-04 -7.38127e-04
       H  1.97248e-03 -4.96839e-03 -1.76522e-03
       H -1.11666e-03 -3.84685e-04  2.70098e-03
       O  4.09230e-04 -6.40371e-05  9.85104e-04
       H -5.65225e-03  1.23574e-03  3.57075e-03
       H  1.71762e-03 -7.61676e-04 -5.88718e-04
       O -5.82104e-04 -3.60555e-04 -9.89926e-04
       H  3.04985e-04  4.76307e-03  1.13109e-03
       H  1.72795e-03 -1.21304e-03 -6.12606e-04
       O -7.04715e-04  4.18704e-04  1.68559e-03
       H  2.43901e-03  2.04225e-03  3.69692e-03
       H  2.26318e-03 -4.45652e-04 -1.27018e-03
       O  1.00756e-03  4.69322e-04  2.16215e-03
       H -2.73594e-03 -9.06950e-04  4.51290e-03
       H  4.87876e-03 -6.26134e-03 -8.60358e-03
       O  4.88732e-04  8.55477e-04  1.61209e-03
       H  1.05504e-03 -5.77725e-03  1.79507e-03
       H  3.88078e-04 -2.59043e-03  2.33540e-03
       O  1.39237e-03  2.20241e-03 -4.23499e-04
       H  4.45844e-03  1.64928e-03 -7.48723e-03
       H  3.85111e-03 -3.57614e-03  1.15513e-03
       O  6.11712e-04  4.25653e-04 -1.13081e-03
       H  9.06754e-04 -4.70283e-03  1.31937e-04
       H -2.19494e-03 -3.06447e-04 -1.64046e-03
       O -3.34826e-04 -1.38215e-04  4.37654e-04
       H -4.24739e-03  6.52606e-03  5.69094e-03
       H  3.28610e-03 -3.65120e-03  8.56611e-04
       O  9.87247e-04 -3.18948e-04  2.00327e-03
       H  1.62457e-04 -5.25468e-03 -2.23587e-04
       H  1.62901e-03  2.28883e-03 -8.28220e-04
       O -9.47033e-05 -8.73535e-04  1.26114e-03
       H -1.47102e-03 -4.86722e-03  4.31085e-03
       H -2.42119e-03 -3.75813e-03  1.19410e-03
       O  3.35049e-05 -7.05262e-04  6.29999e-04
       H -7.93823e-03 -2.25790e-03  8.11734e-03
       H  2.51860e-03 -6.79961e-04 -1.38680e-04
       O  1.00819e-03 -2.79921e-04 -1.12883e-04
       H  6.58628e-04  3.63288e-03  2.08860e-03
       H  1.01233e-03 -1.39886e-03  5.04318e-03
192
# CELL(abcABC):   16.99620    29.43815    27.67315    90.00000    90.00000    90.00000  Step:          20  Bead:      13 velocities{atomic_unit}  cell{atomic_unit}
       O  2.82064e-03  7.37461e-04  1.74304e-03
       H -4.09433e-03  2.93035e-03 -8.71507e-04
       H -4.54655e-03 -6.28805e-04 -1.49531e-03
       O -8.28061e-04  1.41539e-04 -6.89395e-04
       H  6.91633e-03 -4.88733e-04  9.38501e-05
       H -4.53401e-03  3.78373e-03 -1.01122e-03
       O -1.68647e-04  6.09697e-04  8.11649e-04
       H  2.15780e-03 -5.87328e-03 -1.17880e-03
       H -7.29461e-03  2.34876e-03  1.14806e-03
       O -6.25226e-04 -1.03304e-03 -6.48050e-05
       H  3.18112e-03 -1.43915e-03  2.00749e-03
       H  1.90164e-03  8.94093e-04 -1.82821e-03
       O  9.22820e-04 -2.97642e-04  9.71932e-04
       H  4.79637e-03  3.56695e-04 -2.54265e-03
       H  4.25589e-03 -9.30579e-04 -2.62820e-03
       O -4.04854e-04 -3.33816e-04 -3.64504e-04
       H -1.49856e-03  7.47716e-04 -1.99538e-03
       H  5.48343e-04  1.67808e-04 -4.76580e-03
       O -1.82732e-03 -3.16681e-05  1.30696e-03
       H -1.17378e-03 -6.56345e-05 -1.22662e-03
       H -1.70349e-04  8.46824e-03 -1.31608e-03
       O  1.49181e-03 -2.18081e-04 -3.06024e-04
       H  1.29964e-03 -8.24536e-04  1.80544e-03
       H -2.88568e-03 -1.13824e-03  6.75592e-04
       O -2.38404e-04  9.34324e-04  2.23760e-04
       H  1.14518e-04  4.41463e-03 -2.46969e-03
       H  5.57968e-04  5.02498e-03 -4.25343e-03
       O  1.39170e-03 -2.66568e-04 -6.72834e-04
       H -7.06307e-03  1.88856e-03 -6.13731e-03
       H  1.56193e-03  3.49373e-03  3.80909e-03
       O -2.30300e-03  2.33320e-04  6.59636e-04
       H -8.83902e-04 -7.61012e-03 -4.51528e-03
       H  5.12404e-03 -1.94922e-03 -1.50231e-03
       O  2.30135e-04  1.76770e-03  3.82369e-04
       H  4.86951e-03 -2.22436e-03  3.74481e-03
       H  5.88718e-03 -2.03818e-03 -4.67456e-03
       O -2.10819e-04 -1.05784e-03  4.14627e-05
       H -3.71545e-03  1.62670e-03 -3.52474e-03
       H -1.52633e-03 -9.47740e-04 -1.11627e-02
       O  3.73719e-04  5.69319e-04  2.52202e-06
       H  5.26551e-03  2.91986e-03  9.62200e-04
       H  2.32898e-03  9.86124e-05  3.51086e-03
       O -3.65422e-04 -4.12654e-04 -1.07096e-03
       H  8.22762e-04  1.53451e-04 -1.42097e-03
       H  4.35852e-03  9.85299e-04  5.99022e-03
       O -1.40227e-03  1.54849e-03 -1.66342e-03
       H -2.85544e-03  4.66068e-03  1.11525e-03
       H -1.99987e-03  1.28537e-03  4.74247e-04
       O  9.56850e-04  1.27742e-03  2.74028e-04
       H -3.30419e-03  3.28512e-03  5.46157e-03
       H  6.98781e-04  3.41675e-03  6.37734e-03
       O -9.44194e-05 -1.58425e-03  5.96081e-06
       H  3.10968e-03  1.79889e-03 -3.32254e-04
       H  3.36353e-03  3.27280e-03  2.73134e-03
       O -1.35684e-03  1.36304e-03  1.05884e-03
       H  2.24768e-03 -4.76777e-03  6.13859e-03
       H -1.51926e-03 -2.10564e-03 -5.40240e-03
       O -1.84317e-03  9.42529e-04 -9.04098e-05
       H -1.28571e-03 -3.06099e-04 -2.35057e-05
       H -4.84606e-03  3.59870e-04 -1.54562e-03
       O  7.99190e-05  1.60523e-04 -3.17853e-04
       H -1.86465e-03  3.14543e-03 -4.88246e-03
       H  6.80640e-03 -4.17304e-03  1.00634e-03
       O  1.06675e-03 -2.19214e-04 -9.91123e-05
       H -7.05036e-04  1.90551e-03 -8.88151e-04
       H  4.86902e-03  3.71917e-03  3.05028e-03
       O -1.52508e-04  1.16736e-04  1.48136e-04
       H  2.73623e-03 -8.33654e-04  4.59090e-03
       H -6.37723e-05 -3.53592e-03 -1.70137e-03
       O  9.59999e-05 -1.33344e-03 -5.36940e-04
       H  3.27485e-03 -5.20039e-03  3.57227e-04
       H -3.12997e-03  4.68917e-03  6.80501e-03
       O  6.93476e-04 -1.37780e-03  3.02870e-04
       H  3.88108e-03  3.69384e-03  2.58314e-03
       H  2.13143e-03  3.89599e-04  6.72995e-03
       O  1.19160e-03 -1.36591e-03 -5.86544e-04
       H  1.59711e-03 -4.12453e-03 -9.79168e-04
       H -5.21587e-03  7.64722e-04 -1.10001e-03
       O -7.21038e-04 -3.13263e-04  5.48552e-05
       H -1.07588e-03 -1.59659e-03  1.56748e-03
       H  1.25846e-05 -1.69848e-03  8.28787e-03
       O  6.10093e-04  2.74751e-04  8.98126e-04
       H  2.82501e-03 -2.51447e-03 -6.84228e-03
       H -3.07750e-03 -7.92224e-03 -4.33644e-03
       O  7.12289e-04  9.63886e-04  3.66730e-04
       H -7.69684e-04 -7.72947e-03 -1.27947e-04
       H  3.58940e-03 -4.29959e-03 -3.02723e-03
       O -1.63882e-04 -3.22531e-04 -7.37448e-04
       H -2.10643e-04 -8.94456e-04 -1.64102e-03
       H  1.72834e-03  4.07518e-03  4.15285e-03
       O  3.69432e-04  1.26592e-04 -9.23415e-04
       H -5.61839e-03 -9.39299e-04 -1.80403e-03
       H  2.25976e-03 -2.35325e-03 -3.72856e-03
       O  7.02156e-04 -5.26329e-04 -7.01172e-04
       H  1.83091e-03 -4.19100e-03  5.85674e-03
       H -1.57418e-03  6.68191e-03 -3.39394e-04
       O  2.66779e-04  5.71399e-04  6.49911e-05
       H  4.22791e-04 -2.42741e-03  2.32289e-03
       H -7.14993e-04 -3.63319e-03 -4.54338e-03
       O  1.51498e-03  2.55965e-04 -1.58768e-03
       H  3.90529e-03 -2.28527e-03  4.68203e-03
       H  5.00334e-03  4.67127e-03 -3.17486e-03
       O  5.05628e-04 -1.41626e-03 -4.55124e-04
       H  2.59636e-03  5.62033e-04  1.94194e-03
       H -7.11114e-03 -5.19976e-03  1.60706e-03
       O -9.67750e-05  8.99718e-04  1.04743e-03
       H -1.30133e-03  6.12897e-03 -1.40780e-03
       H  6.71295e-04  1.17681e-03  3.19605e-03
       O -3.11455e-04  1.15025e-03  1.03522e-03
       H -5.31411e-03 -1.30933e-03  4.92420e-03
       H  5.51123e-04  2.43844e-04 -3.58311e-03
       O -4.05152e-04 -3.28799e-04  1.17278e-03
       H -1.94481e-03 -3.31384e-03 -3.72756e-03
       H  7.00587e-03 -2.17703e-03 -1.14601e-03
       O -6.80353e-04 -1.21683e-03  1.06879e-03
       H -1.00324e-03  1.33449e-03  7.61028e-03
       H -6.37597e-03  1.04393e-03 -3.27200e-03
       O  2.60404e-04 -2.53006e-04 -2.63299e-04
       H -5.36200e-03 -7.56051e-04 -3.02171e-03
       H -2.39708e-03 -2.92815e-05 -1.51078e-04
       O -2.65852e-04 -1.46584e-03  1.02731e-03
       H  1.22204e-03 -5.52560e-03  3.97314e-03
       H -7.53682e-04 -4.49392e-03 -1.07092e-02
       O  1.26979e-03  5.53135e-04 -1.20286e-03
       H -3.05680e-03  7.47477e-04  1.22914e-03
       H -2.36334e-03  7.62769e-03  4.22313e-04
       O  1.72176e-04  6.68421e-04 -3.49052e-04
       H -5.50573e-03 -5.98193e-03 -2.66361e-03
       H  5.76505e-03  1.83066e-03  2.50947e-03
       O -3.97607e-04 -2.71275e-04 -4.89342e-04
       H  4.50453e-03 -3.62891e-03  7.34003e-03
       H  6.02592e-03 -2.34032e-03 -4.39012e-04
       O -3.65169e-04  1.14699e-03  5.76534e-04
       H -8.06015e-04  2.73547e-03  2.25484e-03
       H -2.69200e-03  9.18708e-05  1.76345e-03
       O  7.19429e-04 -1.62369e-03 -3.34918e-04
       H  3.32932e-03 -6.27546e-03 -8.49453e-04
       H -7.27087e-04 -8.17135e-03  8.95036e-03
       O  2.14939e-03 -1.61568e-03 -2.64863e-04
       H  1.38506e-03  7.47302e-03 -2.35519e-03
       H -2.33989e-03 -6.69489e-04 -3.66884e-03
       O  3.26555e-04 -9.93009e-04 -2.00486e-03
       H -2.38370e-03  3.55455e-03  3.29863e-04
       H  5.30380e-03  3.47611e-04  3.56189e-03
       O  3.86783e-04  1.17824e-03  1.31534e-03
       H  3.33357e-04  1.51534e-03  1.16015e-03
       H -6.49014e-03 -1.60806e-03 -5.11714e-03
       O -1.39337e-03  2.89143e-06 -5.09515e-04
       H  7.56527e-03  1.23549e-03  2.20131e-03
       H  4.08267e-03  1.04777e-03  2.18290e-03
       O  1.30455e-04 -8.18605e-04 -1.34362e-04
       H -2.17948e-03  8.69128e-04  2.84071e-04
       H -3.55492e-03  4.06747e-03  8.80362e-03
       O -6.01220e-04 -6.76314e-04 -1.19986e-03
       H -1.30495e-04 -5.34679e-04  1.36136e-03
       H  9.43146e-04 -4.14410e-03 -3.75448e-03
       O  2.13444e-03  1.92606e-04 -1.56039e-03
       H  5.78538e-03 -1.93944e-03  1.91436e-03
       H  4.60322e-04 -5.66907e-03  1.07443e-03
       O  6.32035e-04 -7.03222e-04  1.31254e-03
       H -6.34950e-05 -3.05511e-03  2.15541e-03
       H  2.76991e-03 -9.70328e-03 -4.78465e-03
       O -1.41567e-03  8.24172e-05 -8.21860e-04
       H  1.54961e-03 -7.17373e-03  4.58448e-04
       H  8.17937e-03  4.43325e-03 -1.47108e-03
       O -1.26496e-03 -9.41486e-04 -1.80436e-03
       H  8.69511e-03 -2.58109e-03  2.93328e-03
       H  5.44247e-04 -2.45121e-03 -1.34405e-03
       O  1.73184e-04  4.37312e-04  2.95426e-04
       H -2.17561e-03 -2.21192e-03 -4.61058e-03
       H -8.27474e-03 -3.37266e-04 -5.64412e-03
       O -2.25057e-04 -3.81520e-04 -9.55925e-04
       H -5.72117e-04 -5.36672e-03 -7.72724e-03
       H  4.18273e-03  4.88345e-03 -3.10512e-03
       O -9.96539e-04  8.89844e-04 -4.09323e-04
       H -5.71438e-03 -4.82050e-03  3.67669e-03
       H -2.62816e-03 -5.19732e-03  8.01985e-04
       O -1.67125e-03 -2.82815e-04 -1.01699e-03
       H  7.36650e-03 -1.13611e-02  4.10714e-03
       H -2.33651e-03  5.38503e-03  1.52064e-03
       O -2.11301e-05 -1.43602e-04  2.09265e-04
       H  4.45232e-03 -5.84119e-03  5.28526e-05
       H  9.42646e-04 -4.08933e-04 -4.86571e-03
       O -4.38611e-04 -7.66208e-04 -4.52914e-04
       H -1.29250e-03  1.60612e-03 -9.48726e-05
       H  3.06425e-04  1.50709e-03 -3.87105e-03
       O -1.02391e-03  8.46756e-05 -3.14137e-04
       H -4.07205e-03 -2.51772e-03 -1.54778e-03
       H  7.20865e-04 -2.76037e-03 -3.88883e-05
       O -7.48566e-04 -1.47068e-03  5.70584e-04
       H  5.57466e-03  1.31435e-03  4.77927e-03
       H  1.94488e-03 -4.88065e-03 -2.89226e-03
192
# CELL(abcABC):   16.99620    29.43815    27.67315    90.00000    90.00000    90.00000  Step:          30  Bead:      13 velocities{atomic_unit}  cell{atomic_unit}
       O  2.07272e-04  1.44046e-03 -5.78037e-05
       H -1.98107e-03  4.51323e-05 -5.89645e-03
       H  1.02856e-03  2.57886e-03 -2.01400e-03
       O -8.53969e-04 -5.11064e-04  9.01583e-06
       H  2.53023e-03 -9.53836e-04 -1.90982e-03
       H  4.86342e-03  4.11816e-04 -1.38405e-03
       O  1.82453e-04 -7.70177e-04  1.19157e-05
       H -3.10318e-03 -1.57325e-03 -1.43612e-03
       H  6.01660e-04  4.04684e-03  1.68471e-03
       O -2.29817e-04  2.45775e-04 -7.56155e-04
       H  4.43823e-04  1.67417e-03  3.78732e-03
       H  5.84020e-03  5.36360e-03 -6.75108e-04
       O  4.33383e-04  1.04941e-04 -1.21587e-03
       H  5.51071e-03 -7.91054e-04 -1.66366e-03
       H -4.07530e-03 -4.00216e-04 -2.50142e-03
       O  1.58732e-03  3.60524e-04 -1.09668e-03
       H -1.82206e-03  6.44327e-03 -1.28676e-03
       H  4.05755e-03 -3.97477e-03  2.05087e-03
       O -5.56643e-04  5.11403e-04  9.79978e-04
       H  6.90888e-04 -1.14419e-02  2.75998e-03
       H  1.00335e-03 -1.17679e-03  4.44801e-03
       O  7.96465e-04 -2.55952e-04  7.78036e-04
       H  5.00073e-03 -1.37611e-03  2.17171e-03
       H  4.82200e-03  5.81023e-03 -1.12157e-03
       O  8.51505e-04 -2.72738e-04 -1.82332e-04
       H  1.85481e-03 -7.34247e-03 -5.85129e-03
       H -4.39213e-03  2.49659e-03  4.71763e-04
       O -3.86994e-04  7.46258e-04 -1.38183e-03
       H -3.19635e-03  1.21616e-04  2.83398e-03
       H -4.03161e-03 -7.27933e-03 -1.27595e-03
       O  5.12242e-04  4.80278e-04 -2.12121e-03
       H -2.94899e-03 -8.59524e-04  1.03718e-03
       H  1.95616e-03 -3.35691e-03  1.99830e-03
       O -1.49191e-03 -1.12268e-03 -3.95588e-04
       H  7.65258e-03  1.80079e-03  8.79008e-03