96
# CELL(abcABC):   10.13051    10.13051    10.13051    90.00000    90.00000    90.00000  Step:           0  Bead:       4 positions{atomic_unit}  cell{atomic_unit}
       O  1.90463e+01  0.00000e+00  0.00000e+00
       H  1.35558e+01  4.00490e+00  8.02129e-01
       H  1.83418e+01  5.56704e+00  3.98384e+00
       O  4.88361e+00  4.78597e+00  0.00000e+00
       H  4.00490e+00  3.98384e+00  8.02129e-01
       H  6.37683e+00  6.37683e+00  1.61192e+00
       O  0.00000e+00  4.68834e+00  4.78597e+00
       H  8.02129e-01  5.56704e+00  5.58810e+00
       H  1.59086e+00  3.19512e+00  3.17406e+00
       O  7.17896e+00  7.17896e+00  2.49062e+00
       H  6.37683e+00  6.37683e+00  1.61192e+00
       H  7.98109e+00  7.98109e+00  1.61192e+00
       O  7.17896e+00  2.39299e+00  7.27659e+00
       H  6.37683e+00  1.59086e+00  6.39789e+00
       H  7.98109e+00  3.19512e+00  6.39789e+00
       O  2.29535e+00  7.17896e+00  7.17896e+00
       H  3.17406e+00  6.37683e+00  7.98109e+00
       H  3.17406e+00  7.98109e+00  6.37683e+00
       O  9.57194e+00  1.90463e+01  0.00000e+00
       H  7.96003e+00  1.75530e+01  1.59086e+00
       H  7.96003e+00  1.59488e+01  3.19512e+00
       O  1.43579e+01  4.88361e+00  0.00000e+00
       H  1.35558e+01  4.00490e+00  8.02129e-01
       H  1.59488e+01  6.37683e+00  1.61192e+00
       O  1.43579e+01  9.76338e-02  4.78597e+00
       H  1.27671e+01  1.59086e+00  3.17406e+00
       H  1.59488e+01  1.59086e+00  6.39789e+00
       O  9.57194e+00  4.68834e+00  4.78597e+00
       H  8.76982e+00  5.56704e+00  3.98384e+00
       H  1.03741e+01  5.56704e+00  5.58810e+00
       O  1.19649e+01  2.39299e+00  2.29535e+00
       H  1.27671e+01  1.59086e+00  3.17406e+00
       H  1.11628e+01  3.19512e+00  3.17406e+00
       O  1.67509e+01  7.17896e+00  2.49062e+00
       H  1.59488e+01  6.37683e+00  1.61192e+00
       H  1.75530e+01  7.98109e+00  1.61192e+00
       O  1.67509e+01  2.39299e+00  7.27659e+00
       H  1.59488e+01  1.59086e+00  6.39789e+00
       H  1.75530e+01  3.19512e+00  6.39789e+00
       O  1.19649e+01  7.17896e+00  7.08132e+00
       H  1.27671e+01  6.37683e+00  7.96003e+00
       H  1.11628e+01  7.98109e+00  7.96003e+00
       O  0.00000e+00  9.57194e+00  9.76338e-02
       H  1.59086e+00  1.11628e+01  1.61192e+00
       H  3.19512e+00  1.27671e+01  1.61192e+00
       O  4.68834e+00  1.43579e+01  0.00000e+00
       H  5.56704e+00  1.51600e+01  8.02129e-01
       H  3.19512e+00  1.27671e+01  1.61192e+00
       O  4.78597e+00  9.57194e+00  4.88361e+00
       H  5.58810e+00  8.76982e+00  4.00490e+00
       H  3.98384e+00  1.03741e+01  4.00490e+00
       O  2.39299e+00  1.19649e+01  2.49062e+00
       H  3.19512e+00  1.27671e+01  1.61192e+00
       H  1.59086e+00  1.11628e+01  1.61192e+00
       O  7.08132e+00  1.67509e+01  2.39299e+00
       H  7.96003e+00  1.59488e+01  3.19512e+00
       H  7.96003e+00  1.75530e+01  1.59086e+00
       O  4.78597e+00  4.88361e+00  9.57194e+00
       H  5.58810e+00  4.00490e+00  8.76982e+00
       H  3.98384e+00  4.00490e+00  1.03741e+01
       O  4.68834e+00  0.00000e+00  1.43579e+01
       H  5.56704e+00  8.02129e-01  1.51600e+01
       H  3.19512e+00  1.61192e+00  1.27671e+01
       O  0.00000e+00  4.88361e+00  1.43579e+01
       H  8.02129e-01  4.00490e+00  1.35558e+01
       H  1.59086e+00  6.37683e+00  1.59698e+01
       O  2.39299e+00  2.49062e+00  1.19649e+01
       H  3.19512e+00  1.61192e+00  1.27671e+01
       H  1.59086e+00  1.61192e+00  1.11628e+01
       O  7.17896e+00  7.17896e+00  1.20626e+01
       H  6.37683e+00  6.37683e+00  1.11839e+01
       H  7.98109e+00  7.98109e+00  1.11839e+01
       O  7.17896e+00  2.29535e+00  1.67509e+01
       H  6.37683e+00  3.17406e+00  1.75530e+01
       H  7.98109e+00  3.17406e+00  1.59488e+01
       O  2.39299e+00  7.17896e+00  1.68485e+01
       H  1.59086e+00  6.37683e+00  1.59698e+01
       H  3.19512e+00  7.98109e+00  1.59698e+01
       O  1.42603e+01  4.78597e+00  9.57194e+00
       H  1.51390e+01  3.98384e+00  8.76982e+00
       H  1.51390e+01  5.58810e+00  1.03741e+01
       O  9.57194e+00  4.68834e+00  1.43579e+01
       H  8.76982e+00  5.56704e+00  1.35558e+01
       H  1.03741e+01  5.56704e+00  1.51600e+01
       O  1.19649e+01  2.29535e+00  1.19649e+01
       H  1.27671e+01  3.17406e+00  1.11628e+01
       H  1.11628e+01  3.17406e+00  1.27671e+01
       O  1.66533e+01  7.17896e+00  1.19649e+01
       H  1.75320e+01  6.37683e+00  1.27671e+01
       H  1.75320e+01  7.98109e+00  1.11628e+01
       O  4.78597e+00  9.57194e+00  1.44556e+01
       H  5.58810e+00  8.76982e+00  1.35768e+01
       H  3.98384e+00  1.03741e+01  1.35768e+01
       O  7.17896e+00  1.19649e+01  1.68485e+01
       H  7.98109e+00  1.27671e+01  1.59698e+01
       H  6.37683e+00  1.11628e+01  1.59698e+01
