192
# CELL(abcABC):   16.99620    29.43815    27.67315    90.00000    90.00000    90.00000  Step:           0  Bead:      20 positions{atomic_unit}  cell{atomic_unit}
       O -8.22215e+00 -9.94239e+00 -1.31733e+01
       H  7.30664e+00 -1.09711e+01 -1.36322e+01
       H -6.70615e+00 -1.09482e+01 -1.35006e+01
       O -3.97298e+00 -2.58228e+00 -1.31734e+01
       H -5.44033e+00 -3.61131e+00 -1.36317e+01
       H -2.45697e+00 -3.58820e+00 -1.35005e+01
       O -3.95756e+00 -1.25543e+01 -7.82386e-01
       H -3.95604e+00 -1.43515e+01 -2.29143e-01
       H -4.14759e+00 -1.25671e+01 -2.59983e+00
       O -8.20667e+00 -5.19495e+00 -7.82227e-01
       H -8.20527e+00 -6.99211e+00 -2.28860e-01
       H -8.39642e+00 -5.20788e+00 -2.59970e+00
       O -4.52495e+00 -1.21366e+01 -6.25523e+00
       H -6.04104e+00 -1.11308e+01 -6.58223e+00
       H -3.05766e+00 -1.11077e+01 -6.71383e+00
       O  8.22247e+00 -4.77716e+00 -6.25561e+00
       H  6.70639e+00 -3.77128e+00 -6.58235e+00
       H -7.30644e+00 -3.74813e+00 -6.71411e+00
       O  8.20650e+00 -9.52435e+00 -7.70064e+00
       H  8.39647e+00 -9.51190e+00 -9.51809e+00
       H  8.20529e+00 -7.72704e+00 -7.14768e+00
       O -4.54027e+00 -2.16431e+00 -7.70075e+00
       H -4.35006e+00 -2.15153e+00 -9.51816e+00
       H -4.54166e+00 -3.67089e-01 -7.14744e+00
       O -8.22211e+00 -9.94193e+00  6.63469e-01
       H  7.30672e+00 -1.09707e+01  2.04633e-01
       H -6.70609e+00 -1.09478e+01  3.36365e-01
       O -3.97290e+00 -2.58257e+00  6.63081e-01
       H -5.44032e+00 -3.61148e+00  2.04655e-01
       H -2.45688e+00 -3.58848e+00  3.35971e-01
       O -3.95760e+00 -1.25545e+01  1.30538e+01
       H -3.95614e+00 -1.43517e+01  1.36071e+01
       H -4.14757e+00 -1.25673e+01  1.12363e+01
       O -8.20656e+00 -5.19529e+00  1.30545e+01
       H -8.20517e+00 -6.99250e+00  1.36078e+01
       H -8.39634e+00 -5.20824e+00  1.12370e+01
       O -4.52490e+00 -1.21367e+01  7.58138e+00
       H -6.04102e+00 -1.11309e+01  7.25435e+00
       H -3.05757e+00 -1.11078e+01  7.12272e+00
       O  8.22232e+00 -4.77760e+00  7.58065e+00
       H  6.70627e+00 -3.77169e+00  7.25392e+00
       H -7.30657e+00 -3.74862e+00  7.12211e+00
       O  8.20656e+00 -9.52478e+00  6.13597e+00
       H  8.39651e+00 -9.51229e+00  4.31849e+00
       H  8.20527e+00 -7.72747e+00  6.68889e+00
       O -4.54025e+00 -2.16471e+00  6.13560e+00
       H -4.34999e+00 -2.15183e+00  4.31818e+00
       H -4.54168e+00 -3.67533e-01  6.68897e+00
       O -8.22212e+00  4.77724e+00 -1.31733e+01
       H  7.30671e+00  3.74833e+00 -1.36320e+01
       H -6.70607e+00  3.77135e+00 -1.35002e+01
       O -3.97288e+00  1.21369e+01 -1.31734e+01
       H -5.44030e+00  1.11079e+01 -1.36317e+01
       H -2.45689e+00  1.11310e+01 -1.35006e+01
       O -3.95757e+00  2.16435e+00 -7.82368e-01
       H -3.95607e+00  3.67109e-01 -2.29207e-01
       H -4.14756e+00  2.15166e+00 -2.59983e+00
       O -8.20667e+00  9.52420e+00 -7.81868e-01
       H -8.20527e+00  7.72699e+00 -2.28645e-01
       H -8.39652e+00  9.51128e+00 -2.59932e+00
       O -4.52494e+00  2.58246e+00 -6.25501e+00
       H -6.04100e+00  3.58821e+00 -6.58223e+00
       H -3.05758e+00  3.61139e+00 -6.71360e+00
       O  8.22236e+00  9.94146e+00 -6.25587e+00
       H  6.70631e+00  1.09474e+01 -6.58279e+00
       H -7.30653e+00  1.09705e+01 -6.71435e+00
       O  8.20665e+00  5.19438e+00 -7.70097e+00
       H  8.39659e+00  5.20693e+00 -9.51844e+00
       H  8.20533e+00  6.99167e+00 -7.14797e+00
       O -4.54026e+00  1.25545e+01 -7.70081e+00
       H -4.34992e+00  1.25674e+01 -9.51823e+00
       H -4.54169e+00  1.43517e+01 -7.14749e+00
       O -8.22210e+00  4.77691e+00  6.62996e-01
       H  7.30665e+00  3.74808e+00  2.04431e-01
       H -6.70613e+00  3.77091e+00  3.36028e-01
       O -3.97279e+00  1.21369e+01  6.63306e-01
       H -5.44019e+00  1.11079e+01  2.05006e-01
       H -2.45681e+00  1.11309e+01  3.36133e-01
       O -3.95757e+00  2.16479e+00  1.30545e+01
       H -3.95616e+00  3.67575e-01  1.36077e+01
       H -4.14769e+00  2.15200e+00  1.12370e+01
       O -8.20659e+00  9.52434e+00  1.30546e+01
       H -8.20522e+00  7.72713e+00  1.36079e+01
       H -8.39644e+00  9.51145e+00  1.12371e+01
       O -4.52499e+00  2.58228e+00  7.58148e+00
       H -6.04100e+00  3.58814e+00  7.25437e+00
       H -3.05766e+00  3.61126e+00  7.12297e+00
       O  8.22229e+00  9.94203e+00  7.58108e+00
       H  6.70627e+00  1.09480e+01  7.25419e+00
       H -7.30655e+00  1.09710e+01  7.12260e+00
       O  8.20668e+00  5.19493e+00  6.13567e+00
       H  8.39670e+00  5.20749e+00  4.31823e+00
       H  8.20535e+00  6.99219e+00  6.68874e+00
       O -4.54018e+00  1.25546e+01  6.13603e+00
       H -4.34989e+00  1.25674e+01  4.31861e+00
       H -4.54161e+00  1.43518e+01  6.68925e+00
       O  2.75877e-01 -9.94198e+00 -1.31737e+01
       H -1.19147e+00 -1.09709e+01 -1.36323e+01
       H  1.79191e+00 -1.09478e+01 -1.35009e+01
       O  4.52479e+00 -2.58220e+00 -1.31736e+01
       H  3.05750e+00 -3.61120e+00 -1.36322e+01
       H  6.04084e+00 -3.58815e+00 -1.35003e+01
       O  4.54038e+00 -1.25538e+01 -7.82378e-01
       H  4.54166e+00 -1.43510e+01 -2.29173e-01
       H  4.35042e+00 -1.25666e+01 -2.59983e+00
       O  2.91382e-01 -5.19489e+00 -7.82498e-01
       H  2.92775e-01 -6.99208e+00 -2.29179e-01
       H  1.01240e-01 -5.20770e+00 -2.59994e+00
       O  3.97307e+00 -1.21369e+01 -6.25482e+00
       H  2.45707e+00 -1.11310e+01 -6.58187e+00
       H  5.44043e+00 -1.11080e+01 -6.71350e+00
       O -2.76167e-01 -4.77714e+00 -6.25484e+00
       H -1.79215e+00 -3.77120e+00 -6.58193e+00
       H  1.19122e+00 -3.74822e+00 -6.71327e+00
       O -2.91294e-01 -9.52406e+00 -7.70061e+00
       H -1.01153e-01 -9.51128e+00 -9.51804e+00
       H -2.92737e-01 -7.72684e+00 -7.14734e+00
       O  3.95740e+00 -2.16468e+00 -7.70029e+00
       H  4.14711e+00 -2.15178e+00 -9.51779e+00
       H  3.95613e+00 -3.67477e-01 -7.14700e+00
       O  2.75838e-01 -9.94166e+00  6.63265e-01
       H -1.19143e+00 -1.09706e+01  2.04532e-01
       H  1.79197e+00 -1.09474e+01  3.36068e-01
       O  4.52471e+00 -2.58218e+00  6.62891e-01
       H  3.05743e+00 -3.61117e+00  2.04240e-01
       H  6.04080e+00 -3.58806e+00  3.36089e-01
       O  4.54037e+00 -1.25543e+01  1.30539e+01
       H  4.54173e+00 -1.43516e+01  1.36070e+01
       H  4.35050e+00 -1.25670e+01  1.12364e+01
       O  2.91297e-01 -5.19502e+00  1.30541e+01
       H  2.92732e-01 -6.99225e+00  1.36074e+01
       H  1.01206e-01 -5.20786e+00  1.12367e+01
       O  3.97310e+00 -1.21368e+01  7.58177e+00
       H  2.45707e+00 -1.11309e+01  7.25464e+00
       H  5.44051e+00 -1.11080e+01  7.12302e+00
       O -2.76100e-01 -4.77767e+00  7.58136e+00
       H -1.79210e+00 -3.77177e+00  7.25428e+00
       H  1.19125e+00 -3.74871e+00  7.12290e+00
       O -2.91340e-01 -9.52458e+00  6.13593e+00
       H -1.01282e-01 -9.51181e+00  4.31852e+00
       H -2.92762e-01 -7.72734e+00  6.68916e+00
       O  3.95728e+00 -2.16475e+00  6.13602e+00
       H  4.14704e+00 -2.15175e+00  4.31853e+00
       H  3.95603e+00 -3.67615e-01  6.68942e+00
       O  2.75872e-01  4.77775e+00 -1.31735e+01
       H -1.19145e+00  3.74868e+00 -1.36320e+01
       H  1.79192e+00  3.77189e+00 -1.35005e+01
       O  4.52473e+00  1.21369e+01 -1.31737e+01
       H  3.05744e+00  1.11080e+01 -1.36325e+01
       H  6.04082e+00  1.11311e+01 -1.35004e+01
       O  4.54033e+00  2.16480e+00 -7.82502e-01
       H  4.54166e+00  3.67553e-01 -2.29384e-01
       H  4.35052e+00  2.15214e+00 -2.60000e+00
       O  2.91442e-01  9.52423e+00 -7.82681e-01
       H  2.92837e-01  7.72701e+00 -2.29452e-01
       H  1.01299e-01  9.51146e+00 -2.60013e+00
       O  3.97319e+00  2.58230e+00 -6.25496e+00
       H  2.45717e+00  3.58819e+00 -6.58198e+00
       H  5.44056e+00  3.61109e+00 -6.71379e+00
       O -2.76125e-01  9.94167e+00 -6.25515e+00
       H -1.79212e+00  1.09476e+01 -6.58222e+00
       H  1.19126e+00  1.09706e+01 -6.71377e+00
       O -2.91369e-01  5.19475e+00 -7.70046e+00
       H -1.01380e-01  5.20765e+00 -9.51793e+00
       H -2.92793e-01  6.99195e+00 -7.14718e+00
       O  3.95737e+00  1.25543e+01 -7.70076e+00
       H  4.14703e+00  1.25673e+01 -9.51824e+00
       H  3.95606e+00  1.43514e+01 -7.14726e+00
       O  2.75794e-01  4.77734e+00  6.62959e-01
       H -1.19152e+00  3.74832e+00  2.04499e-01
       H  1.79186e+00  3.77147e+00  3.35887e-01
       O  4.52464e+00  1.21373e+01  6.62988e-01
       H  3.05745e+00  1.11082e+01  2.04218e-01
       H  6.04076e+00  1.11314e+01  3.36450e-01
       O  4.54041e+00  2.16499e+00  1.30543e+01
       H  4.54178e+00  3.67749e-01  1.36074e+01
       H  4.35054e+00  2.15228e+00  1.12368e+01
       O  2.91308e-01  9.52457e+00  1.30538e+01
       H  2.92715e-01  7.72735e+00  1.36071e+01
       H  1.01225e-01  9.51181e+00  1.12363e+01
       O  3.97315e+00  2.58235e+00  7.58152e+00
       H  2.45713e+00  3.58829e+00  7.25455e+00
       H  5.44048e+00  3.61122e+00  7.12279e+00
       O -2.76008e-01  9.94202e+00  7.58171e+00
       H -1.79205e+00  1.09479e+01  7.25468e+00
       H  1.19134e+00  1.09710e+01  7.12317e+00
       O -2.91416e-01  5.19510e+00  6.13606e+00
       H -1.01371e-01  5.20795e+00  4.31863e+00
       H -2.92777e-01  6.99228e+00  6.68938e+00
       O  3.95729e+00  1.25546e+01  6.13612e+00
       H  4.14688e+00  1.25676e+01  4.31864e+00
       H  3.95603e+00  1.43518e+01  6.68952e+00
192
# CELL(abcABC):   16.99620    29.43815    27.67315    90.00000    90.00000    90.00000  Step:          10  Bead:      20 positions{atomic_unit}  cell{atomic_unit}
       O -8.24193e+00 -9.93604e+00 -1.31073e+01
       H  7.10829e+00 -1.08536e+01 -1.34111e+01
       H -6.64381e+00 -1.11534e+01 -1.36096e+01
       O -3.99591e+00 -2.51134e+00 -1.31765e+01
       H -5.45447e+00 -3.66850e+00 -1.35577e+01
       H -2.44587e+00 -3.19346e+00 -1.34227e+01
       O -3.97604e+00 -1.25099e+01 -8.70756e-01
       H -3.98040e+00 -1.40751e+01 -4.66476e-01
       H -4.08479e+00 -1.27302e+01 -2.66603e+00
       O -8.25426e+00 -5.24921e+00 -7.72909e-01
       H -8.16305e+00 -6.87267e+00 -1.10570e-01
       H -8.76512e+00 -5.11740e+00 -2.43670e+00
       O -4.52456e+00 -1.21443e+01 -6.26898e+00
       H -5.88920e+00 -1.10534e+01 -6.82325e+00
       H -2.99757e+00 -1.11429e+01 -6.88000e+00
       O  8.21955e+00 -4.79179e+00 -6.39971e+00
       H  6.86033e+00 -3.95450e+00 -6.52133e+00
       H -7.30483e+00 -3.79527e+00 -6.91999e+00
       O  8.12393e+00 -9.58022e+00 -7.64199e+00
       H  8.32031e+00 -9.36674e+00 -9.64726e+00
       H  8.02009e+00 -7.92435e+00 -7.14623e+00
       O -4.49966e+00 -2.13047e+00 -7.74983e+00
       H -4.18260e+00 -2.13913e+00 -9.64742e+00
       H -4.75469e+00 -1.83473e-01 -7.02543e+00
       O -8.28561e+00 -9.92688e+00  6.17954e-01
       H  7.52650e+00 -1.09523e+01  2.59391e-01
       H -6.91682e+00 -1.07537e+01  9.43170e-02
       O -3.99126e+00 -2.54530e+00  7.06452e-01
       H -5.40637e+00 -3.48340e+00  1.44743e-01
       H -2.65731e+00 -4.04011e+00  1.47639e-01
       O -3.91700e+00 -1.25241e+01  1.31133e+01
       H -3.89151e+00 -1.46250e+01  1.36674e+01
       H -4.29504e+00 -1.25686e+01  1.13580e+01
       O -8.21453e+00 -5.18145e+00  1.31076e+01
       H -8.15079e+00 -7.09723e+00  1.34007e+01
       H -8.71651e+00 -5.10257e+00  1.10684e+01
       O -4.54447e+00 -1.21672e+01  7.60555e+00
       H -6.10889e+00 -1.11342e+01  7.16899e+00
       H -3.20722e+00 -1.09459e+01  7.21824e+00
       O  8.19661e+00 -4.81671e+00  7.54251e+00
       H  6.50045e+00 -3.85787e+00  7.16455e+00
       H -7.17980e+00 -3.85540e+00  7.27518e+00
       O  8.17709e+00 -9.53867e+00  6.14509e+00
       H  8.37818e+00 -9.28947e+00  4.36673e+00
       H  8.51763e+00 -7.60791e+00  6.80285e+00
       O -4.52954e+00 -2.14914e+00  6.11605e+00
       H -4.24540e+00 -2.14146e+00  4.34292e+00
       H -4.65551e+00 -3.76192e-01  6.68036e+00
       O -8.18699e+00  4.78611e+00 -1.32498e+01
       H  7.39621e+00  3.81014e+00 -1.34454e+01
       H -6.70023e+00  3.58786e+00 -1.34078e+01
       O -3.95851e+00  1.21790e+01 -1.31560e+01
       H -5.58311e+00  1.12987e+01 -1.33634e+01
       H -2.16031e+00  1.12260e+01 -1.32542e+01
       O -4.00824e+00  2.19190e+00 -7.82866e-01
       H -4.24529e+00  2.79399e-01 -2.82766e-01
       H -4.01597e+00  2.19143e+00 -2.76782e+00
       O -8.23014e+00  9.53374e+00 -7.08127e-01
       H -8.35673e+00  7.66462e+00 -2.66340e-01
       H -8.06074e+00  9.66722e+00 -2.73208e+00
       O -4.53539e+00  2.57019e+00 -6.27199e+00
       H -5.98034e+00  3.56583e+00 -6.31495e+00
       H -2.95897e+00  3.84926e+00 -6.45791e+00
       O  8.17319e+00  9.97714e+00 -6.26072e+00
       H  6.50188e+00  1.08437e+01 -6.63500e+00
       H -7.10626e+00  1.09559e+01 -6.50301e+00
       O  8.20324e+00  5.14756e+00 -7.69392e+00
       H  8.45796e+00  5.19258e+00 -9.49175e+00
       H  8.14628e+00  7.08490e+00 -7.15087e+00
       O -4.59809e+00  1.25548e+01 -7.74531e+00
       H -4.65954e+00  1.24551e+01 -9.54609e+00
       H -4.46788e+00  1.44978e+01 -7.20198e+00
       O -8.17134e+00  4.76345e+00  6.80147e-01
       H  7.31126e+00  3.78140e+00  4.26186e-02
       H -6.90283e+00  3.69923e+00  4.86038e-01
       O -3.98767e+00  1.21354e+01  6.58961e-01
       H -5.51110e+00  1.11417e+01  2.51939e-01
       H -2.32380e+00  1.13155e+01  2.48138e-01
       O -3.97695e+00  2.12595e+00  1.30228e+01
       H -4.34958e+00  3.22964e-01  1.35461e+01
       H -4.05294e+00  2.33918e+00  1.13116e+01
       O -8.23891e+00  9.47825e+00  1.30786e+01
       H -8.24070e+00  7.53978e+00  1.33828e+01
       H -8.50422e+00  9.59680e+00  1.09946e+01
       O -4.54745e+00  2.58290e+00  7.52587e+00
       H -6.08644e+00  3.60039e+00  7.55840e+00
       H -3.12722e+00  3.43249e+00  6.92401e+00
       O  8.15969e+00  9.99289e+00  7.58838e+00
       H  6.75057e+00  1.11923e+01  6.93572e+00
       H -7.43097e+00  1.08856e+01  7.17324e+00
       O  8.28102e+00  5.10142e+00  6.19022e+00
       H  8.49078e+00  5.26884e+00  4.33830e+00
       H  8.23583e+00  6.97520e+00  6.63072e+00
       O -4.52478e+00  1.25687e+01  6.11848e+00
       H -4.75740e+00  1.26882e+01  4.27194e+00
       H -4.39744e+00  1.41810e+01  6.71986e+00
       O  3.04673e-01 -9.89728e+00 -1.31568e+01
       H -1.33367e+00 -1.08300e+01 -1.35665e+01
       H  1.76856e+00 -1.10362e+01 -1.33426e+01
       O  4.56221e+00 -2.56329e+00 -1.31532e+01
       H  3.19061e+00 -3.96645e+00 -1.38364e+01
       H  5.83120e+00 -3.61994e+00 -1.38864e+01
       O  4.60080e+00 -1.24726e+01 -8.42171e-01
       H  4.64436e+00 -1.43211e+01 -4.82007e-01
       H  4.48261e+00 -1.26764e+01 -2.68027e+00
       O  2.68694e-01 -5.26241e+00 -8.03386e-01
       H  2.94766e-01 -7.03461e+00 -9.40617e-02
       H  3.40280e-01 -5.32665e+00 -2.55107e+00
       O  3.97999e+00 -1.21846e+01 -6.19176e+00
       H  2.22797e+00 -1.10819e+01 -6.51069e+00
       H  5.32982e+00 -1.10711e+01 -6.51286e+00
       O -3.05666e-01 -4.79661e+00 -6.28034e+00
       H -1.88736e+00 -4.05135e+00 -6.62221e+00
       H  1.00299e+00 -3.72547e+00 -6.85035e+00
       O -3.00897e-01 -9.57519e+00 -7.70311e+00
       H -3.06207e-01 -9.49068e+00 -9.54571e+00
       H -1.95367e-01 -7.55647e+00 -7.34324e+00
       O  3.91091e+00 -2.14790e+00 -7.69388e+00
       H  4.01567e+00 -2.38959e+00 -9.52048e+00
       H  4.09465e+00 -2.13298e-01 -7.21193e+00
       O  2.16577e-01 -9.92518e+00  6.04168e-01
       H -1.12954e+00 -1.08887e+01  6.58520e-02
       H  1.65099e+00 -1.10491e+01  6.19791e-01
       O  4.49496e+00 -2.61249e+00  5.90796e-01
       H  3.18574e+00 -3.73969e+00  2.67716e-01
       H  6.01114e+00 -3.57035e+00  2.83069e-01
       O  4.56993e+00 -1.25484e+01  1.30408e+01
       H  4.42920e+00 -1.45232e+01  1.34108e+01
       H  4.53914e+00 -1.25184e+01  1.12060e+01
       O  2.69579e-01 -5.19428e+00  1.30699e+01
       H  1.41177e-01 -7.06042e+00  1.37061e+01
       H  1.48869e-01 -5.41640e+00  1.10180e+01
       O  3.87532e+00 -1.21483e+01  7.57500e+00
       H  2.34537e+00 -1.12315e+01  7.25577e+00
       H  5.44188e+00 -1.10773e+01  7.25510e+00
       O -2.47298e-01 -4.82597e+00  7.58142e+00
       H -1.73156e+00 -3.99754e+00  7.22121e+00
       H  1.08934e+00 -3.74456e+00  7.02132e+00
       O -3.20067e-01 -9.55813e+00  6.14209e+00
       H -1.77334e-01 -9.53928e+00  4.40375e+00
       H -2.47957e-01 -7.79305e+00  6.73469e+00
       O  4.00242e+00 -2.20687e+00  6.17082e+00
       H  4.16911e+00 -2.34171e+00  4.36791e+00
       H  3.90812e+00 -2.76891e-01  6.58953e+00
       O  3.23134e-01  4.82448e+00 -1.31098e+01
       H -9.34187e-01  3.71455e+00 -1.37884e+01
       H  1.59077e+00  3.84207e+00 -1.36299e+01
       O  4.49727e+00  1.21772e+01 -1.32275e+01
       H  2.92618e+00  1.10182e+01 -1.34045e+01
       H  6.09709e+00  1.11130e+01 -1.33591e+01
       O  4.50831e+00  2.10122e+00 -7.73228e-01
       H  4.92029e+00  4.27213e-01 -1.04585e-01
       H  4.42088e+00  2.36242e+00 -2.44084e+00
       O  2.36530e-01  9.50561e+00 -7.61940e-01
       H  2.33196e-02  7.76250e+00 -1.34083e-01
       H  1.90981e-01  9.46629e+00 -2.51955e+00
       O  3.93301e+00  2.59159e+00 -6.18335e+00
       H  2.40530e+00  3.76480e+00 -6.70228e+00
       H  5.34809e+00  3.37989e+00 -6.48431e+00
       O -2.37525e-01  9.90296e+00 -6.36269e+00
       H -1.89104e+00  1.07771e+01 -6.51224e+00
       H  1.28380e+00  1.11443e+01 -6.78360e+00
       O -3.20531e-01  5.17544e+00 -7.68831e+00
       H  2.77071e-01  5.21557e+00 -9.72846e+00
       H -2.30609e-01  7.05651e+00 -7.11359e+00
       O  3.98070e+00  1.25929e+01 -7.77281e+00
       H  4.37681e+00  1.25251e+01 -9.48680e+00
       H  4.21117e+00  1.44115e+01 -6.73519e+00
       O  2.96648e-01  4.76429e+00  7.26193e-01
       H -1.16258e+00  3.84680e+00  1.69726e-01
       H  1.72525e+00  3.76027e+00  5.16751e-01
       O  4.48511e+00  1.21059e+01  6.84590e-01
       H  2.94487e+00  1.11707e+01  4.20608e-01
       H  6.07033e+00  1.10971e+01  6.41222e-02
       O  4.49637e+00  2.18770e+00  1.30377e+01
       H  4.51271e+00  2.99222e-01  1.37901e+01
       H  4.19691e+00  1.92119e+00  1.13236e+01
       O  2.45528e-01  9.59538e+00  1.29979e+01
       H  3.90336e-01  7.57289e+00  1.35885e+01
       H -6.79110e-02  9.50568e+00  1.12001e+01
       O  3.93139e+00  2.57383e+00  7.64091e+00
       H  2.32218e+00  3.36356e+00  7.35379e+00
       H  5.60378e+00  3.65584e+00  7.11506e+00
       O -3.63576e-01  9.92364e+00  7.55108e+00
       H -1.58269e+00  1.09754e+01  7.20935e+00
       H  1.32933e+00  1.08984e+01  7.28402e+00
       O -2.96598e-01  5.24356e+00  6.07166e+00
       H -2.34967e-01  4.91861e+00  4.22263e+00
       H -3.19031e-01  6.83475e+00  6.69919e+00
       O  3.89939e+00  1.25188e+01  6.13768e+00
       H  3.99305e+00  1.25948e+01  4.36570e+00
       H  3.72363e+00  1.42270e+01  6.76191e+00
192
# CELL(abcABC):   16.99620    29.43815    27.67315    90.00000    90.00000    90.00000  Step:          20  Bead:      20 positions{atomic_unit}  cell{atomic_unit}
       O -8.18084e+00 -9.91410e+00 -1.30962e+01
       H  6.99677e+00 -1.09919e+01 -1.35404e+01
       H -6.63205e+00 -1.10654e+01 -1.35703e+01
       O -3.96425e+00 -2.52105e+00 -1.31223e+01
       H -5.33117e+00 -3.77782e+00 -1.33763e+01
       H -2.19608e+00 -3.32650e+00 -1.35110e+01
       O -3.99887e+00 -1.24854e+01 -8.54859e-01
       H -3.71090e+00 -1.44361e+01 -1.36111e-01
       H -4.26019e+00 -1.26347e+01 -2.80450e+00
       O -8.21450e+00 -5.18065e+00 -7.12033e-01
       H -8.04940e+00 -6.80769e+00  6.48489e-03
       H -8.79909e+00 -5.27267e+00 -2.56893e+00
       O -4.53693e+00 -1.22334e+01 -6.27979e+00
       H -5.90302e+00 -1.11352e+01 -7.04668e+00
       H -2.80395e+00 -1.10247e+01 -6.69262e+00
       O  8.25251e+00 -4.74217e+00 -6.37868e+00
       H  6.65251e+00 -3.80290e+00 -6.71746e+00
       H -7.20172e+00 -3.92555e+00 -7.23323e+00
       O  8.21450e+00 -9.59190e+00 -7.65040e+00
       H  8.51225e+00 -9.25808e+00 -9.50365e+00
       H  8.11123e+00 -7.75447e+00 -6.94910e+00
       O -4.45619e+00 -2.13059e+00 -7.70850e+00
       H -3.93875e+00 -1.92698e+00 -9.53783e+00
       H -5.06649e+00 -4.22612e-01 -6.91037e+00
       O -8.30151e+00 -9.89237e+00  6.40021e-01
       H  7.38149e+00 -1.10898e+01  1.06299e-01
       H -6.94912e+00 -1.10237e+01  3.23642e-01
       O -3.90994e+00 -2.57126e+00  7.56556e-01
       H -5.27735e+00 -3.64897e+00  1.68024e-01
       H -2.44778e+00 -3.71884e+00  4.94378e-01
       O -3.93243e+00 -1.25593e+01  1.30788e+01
       H -3.84855e+00 -1.48499e+01  1.38389e+01
       H -4.28258e+00 -1.24486e+01  1.14192e+01
       O -8.18461e+00 -5.19846e+00  1.31233e+01
       H -8.06745e+00 -7.11114e+00  1.33331e+01
       H -8.48967e+00 -5.08935e+00  1.10698e+01
       O -4.55194e+00 -1.21757e+01  7.54443e+00
       H -6.06354e+00 -1.14111e+01  7.06386e+00
       H -3.39273e+00 -1.07381e+01  6.97399e+00
       O  8.20250e+00 -4.78701e+00  7.54082e+00
       H  6.67126e+00 -3.77032e+00  7.00167e+00
       H -7.03597e+00 -3.65746e+00  7.12433e+00
       O  8.16275e+00 -9.49642e+00  6.14963e+00
       H  8.50485e+00 -9.02166e+00  4.27838e+00
       H  8.19904e+00 -7.83668e+00  6.90454e+00
       O -4.50386e+00 -2.10766e+00  6.12124e+00
       H -4.26812e+00 -2.36506e+00  4.15799e+00
       H -4.50722e+00 -2.16982e-01  6.69531e+00
       O -8.23545e+00  4.74049e+00 -1.32082e+01
       H  7.22794e+00  3.92787e+00 -1.35634e+01
       H -6.64515e+00  3.59014e+00 -1.36757e+01
       O -4.01837e+00  1.21814e+01 -1.31413e+01
       H -5.87324e+00  1.14060e+01 -1.35805e+01
       H -2.29337e+00  1.11665e+01 -1.36108e+01
       O -3.99757e+00  2.16952e+00 -8.54332e-01
       H -3.94321e+00  5.09800e-01 -1.15615e-01
       H -4.17113e+00  2.12165e+00 -2.68359e+00
       O -8.25351e+00  9.46689e+00 -7.79878e-01
       H -8.15958e+00  7.42342e+00 -2.45489e-01
       H -8.13180e+00  9.64406e+00 -2.80251e+00
       O -4.56833e+00  2.52184e+00 -6.23046e+00
       H -6.06460e+00  3.47618e+00 -6.29538e+00
       H -3.08610e+00  3.94855e+00 -6.40295e+00
       O  8.15174e+00  9.99530e+00 -6.26096e+00
       H  6.71435e+00  1.10906e+01 -6.62974e+00
       H -6.93830e+00  1.10936e+01 -6.72254e+00
       O  8.14080e+00  5.22248e+00 -7.72524e+00
       H  8.58413e+00  5.34938e+00 -9.56769e+00
       H  8.40893e+00  7.33644e+00 -6.93113e+00
       O -4.58011e+00  1.25734e+01 -7.73376e+00
       H -4.57856e+00  1.26527e+01 -9.78817e+00
       H -4.58612e+00  1.47189e+01 -7.22965e+00
       O -8.21336e+00  4.73860e+00  6.66732e-01
       H  7.55465e+00  3.56373e+00  1.31080e-01
       H -6.79055e+00  3.53883e+00  5.24845e-01
       O -4.01466e+00  1.21994e+01  5.96864e-01
       H -5.75599e+00  1.10836e+01  2.47836e-01
       H -2.31848e+00  1.10551e+01  3.02608e-01
       O -3.96097e+00  2.18945e+00  1.30566e+01
       H -4.01006e+00  4.58586e-01  1.33457e+01
       H -4.16478e+00  2.16579e+00  1.11693e+01
       O -8.25797e+00  9.50438e+00  1.30870e+01
       H -8.18681e+00  7.63177e+00  1.31547e+01
       H -8.63570e+00  9.72318e+00  1.12761e+01
       O -4.49652e+00  2.55932e+00  7.54726e+00
       H -6.10669e+00  3.43276e+00  7.31662e+00
       H -3.11421e+00  3.27564e+00  6.69285e+00
       O  8.11938e+00  1.01004e+01  7.59295e+00
       H  6.83375e+00  1.11655e+01  6.77557e+00
       H -7.25481e+00  1.08891e+01  7.23027e+00
       O  8.19909e+00  5.16488e+00  6.16122e+00
       H  8.56272e+00  5.26230e+00  4.22978e+00
       H  7.91216e+00  6.87213e+00  6.79542e+00
       O -4.53623e+00  1.25996e+01  6.10119e+00
       H -4.65030e+00  1.25960e+01  4.21887e+00
       H -4.44964e+00  1.40900e+01  6.85140e+00
       O  2.84912e-01 -9.85808e+00 -1.31797e+01
       H -1.34868e+00 -1.06190e+01 -1.36947e+01
       H  1.92132e+00 -1.06519e+01 -1.32390e+01
       O  4.55015e+00 -2.66626e+00 -1.31148e+01
       H  3.32407e+00 -3.98582e+00 -1.38389e+01
       H  6.04497e+00 -3.64632e+00 -1.36448e+01
       O  4.54446e+00 -1.25077e+01 -8.38664e-01
       H  4.90887e+00 -1.41852e+01 -3.35603e-01
       H  4.53022e+00 -1.23961e+01 -2.65375e+00
       O  3.13086e-01 -5.23904e+00 -7.72620e-01
       H  1.47675e-01 -7.05819e+00 -4.76856e-01
       H  2.02531e-01 -5.25284e+00 -2.89529e+00
       O  3.99998e+00 -1.21624e+01 -6.17286e+00
       H  2.49960e+00 -1.12071e+01 -6.69546e+00
       H  5.65266e+00 -1.11844e+01 -6.80509e+00
       O -3.50211e-01 -4.74998e+00 -6.31289e+00
       H -1.91344e+00 -4.01178e+00 -6.76558e+00
       H  9.37763e-01 -3.48181e+00 -6.99713e+00
       O -2.76841e-01 -9.53342e+00 -7.69592e+00
       H -2.16230e-01 -9.40533e+00 -9.65675e+00
       H -5.09263e-01 -7.76966e+00 -7.58898e+00
       O  3.98177e+00 -2.15775e+00 -7.71953e+00
       H  4.34274e+00 -2.22986e+00 -9.42998e+00
       H  4.21099e+00 -1.74056e-01 -7.05748e+00
       O  1.95478e-01 -9.89127e+00  6.00310e-01
       H -1.04728e+00 -1.12042e+01 -2.92743e-01
       H  1.46197e+00 -1.12160e+01  5.19934e-01
       O  4.48297e+00 -2.58535e+00  5.90319e-01
       H  3.18281e+00 -3.75320e+00  2.75823e-01
       H  6.14124e+00 -3.63788e+00  2.92738e-01
       O  4.57775e+00 -1.25054e+01  1.30967e+01
       H  4.65754e+00 -1.44022e+01  1.32460e+01
       H  4.29112e+00 -1.26455e+01  1.12789e+01
       O  2.53342e-01 -5.22705e+00  1.30630e+01
       H  2.88617e-01 -6.92463e+00  1.38764e+01
       H  2.29522e-01 -5.46549e+00  1.10356e+01
       O  3.83185e+00 -1.21482e+01  7.64829e+00
       H  2.26139e+00 -1.11227e+01  7.38075e+00
       H  5.54980e+00 -1.10994e+01  6.94207e+00
       O -2.23148e-01 -4.81057e+00  7.63424e+00
       H -1.70726e+00 -3.72704e+00  7.25848e+00
       H  1.13915e+00 -3.68460e+00  7.05608e+00
       O -3.55522e-01 -9.57838e+00  6.14364e+00
       H -5.32236e-01 -9.56362e+00  4.20629e+00
       H -1.57260e-01 -7.76872e+00  6.74122e+00
       O  3.98573e+00 -2.14404e+00  6.17397e+00
       H  4.29368e+00 -2.34868e+00  4.13402e+00
       H  3.80063e+00 -2.45151e-01  6.55929e+00
       O  2.68067e-01  4.85145e+00 -1.30717e+01
       H -9.69935e-01  3.88571e+00 -1.39747e+01
       H  1.91468e+00  3.87656e+00 -1.39148e+01
       O  4.47069e+00  1.21473e+01 -1.31983e+01
       H  2.97256e+00  1.08511e+01 -1.36440e+01
       H  6.08223e+00  1.09652e+01 -1.33616e+01
       O  4.54569e+00  2.12286e+00 -7.83588e-01
       H  4.87342e+00  1.66409e-01 -2.21607e-01
       H  4.31804e+00  2.36269e+00 -2.67202e+00
       O  1.57817e-01  9.54270e+00 -6.85350e-01
       H  2.73392e-01  7.76491e+00 -2.86177e-01
       H  3.66762e-01  9.24874e+00 -2.62976e+00
       O  3.96563e+00  2.55559e+00 -6.11046e+00
       H  2.47853e+00  3.48557e+00 -6.89575e+00
       H  5.59980e+00  3.24587e+00 -6.65799e+00
       O -2.42499e-01  9.89340e+00 -6.33244e+00
       H -1.92841e+00  1.08701e+01 -6.63018e+00
       H  1.34539e+00  1.11094e+01 -6.63902e+00
       O -3.78410e-01  5.15021e+00 -7.62102e+00
       H  6.48972e-02  5.16379e+00 -9.81780e+00
       H -4.78302e-01  6.92519e+00 -7.04884e+00
       O  3.92046e+00  1.25942e+01 -7.76231e+00
       H  4.82887e+00  1.27263e+01 -9.61452e+00
       H  4.02605e+00  1.44313e+01 -6.96586e+00
       O  2.52539e-01  4.80121e+00  6.86678e-01
       H -9.34930e-01  3.79256e+00  1.73851e-01
       H  1.71163e+00  3.76212e+00  6.03281e-01
       O  4.49465e+00  1.21523e+01  6.89595e-01
       H  2.90669e+00  1.08193e+01  3.26803e-01
       H  5.94479e+00  1.09926e+01  1.18235e-01
       O  4.54050e+00  2.24246e+00  1.29727e+01
       H  4.51831e+00  3.47179e-01  1.34697e+01
       H  4.21277e+00  2.15440e+00  1.13847e+01
       O  2.61384e-01  9.63357e+00  1.30766e+01
       H  3.82684e-01  7.71685e+00  1.37791e+01
       H  8.75113e-02  9.35928e+00  1.11580e+01
       O  3.93713e+00  2.51690e+00  7.63223e+00
       H  2.33531e+00  3.36475e+00  7.27939e+00
       H  5.46420e+00  3.61759e+00  7.04847e+00
       O -3.94254e-01  9.92455e+00  7.58708e+00
       H -1.76800e+00  1.12724e+01  7.50505e+00
       H  1.25386e+00  1.09217e+01  7.22202e+00
       O -2.89840e-01  5.27763e+00  6.13298e+00
       H -2.02883e-01  5.01843e+00  4.38012e+00
       H -1.72624e-01  7.02054e+00  6.73240e+00
       O  3.92011e+00  1.24892e+01  6.14752e+00
       H  4.00658e+00  1.28706e+01  4.26695e+00
       H  3.95297e+00  1.41173e+01  6.74955e+00
192
# CELL(abcABC):   16.99620    29.43815    27.67315    90.00000    90.00000    90.00000  Step:          30  Bead:      20 positions{atomic_unit}  cell{atomic_unit}
       O -8.21088e+00 -9.99125e+00 -1.30466e+01
       H  7.31510e+00 -1.07269e+01 -1.33013e+01
       H -6.62925e+00 -1.10244e+01 -1.37477e+01
       O -3.91010e+00 -2.47549e+00 -1.31480e+01
       H -5.27001e+00 -3.61807e+00 -1.34910e+01
       H -2.40774e+00 -3.59864e+00 -1.36718e+01
       O -3.94280e+00 -1.24759e+01 -8.35243e-01
       H -3.85680e+00 -1.44070e+01 -4.30558e-02
       H -4.24382e+00 -1.24198e+01 -2.68584e+00
       O -8.22290e+00 -5.16559e+00 -7.04195e-01
       H -8.15098e+00 -7.09290e+00 -1.67556e-01
       H -8.59719e+00 -4.83043e+00 -2.54234e+00
       O -4.49616e+00 -1.21762e+01 -6.26380e+00
       H -6.19055e+00 -1.10673e+01 -6.98009e+00
       H -2.53238e+00 -1.11626e+01 -6.54230e+00
       O  8.26047e+00 -4.69166e+00 -6.29159e+00
       H  6.67937e+00 -3.59013e+00 -6.51690e+00
       H -7.26150e+00 -3.80107e+00 -7.04573e+00
       O  8.23126e+00 -9.49214e+00 -7.62287e+00
       H  8.33883e+00 -9.49656e+00 -9.51858e+00
       H  8.08963e+00 -7.55191e+00 -6.82852e+00
       O -4.48628e+00 -2.05609e+00 -7.65273e+00
       H -3.93309e+00 -2.02462e+00 -9.22960e+00
       H -4.87644e+00 -5.15103e-01 -6.93986e+00
       O -8.21696e+00 -9.80630e+00  6.26546e-01
       H  7.26765e+00 -1.11172e+01  8.38695e-02
       H -6.82916e+00 -1.09589e+01  2.87962e-01
       O -3.87583e+00 -2.57304e+00  8.68272e-01
       H -5.43751e+00 -3.74174e+00  4.25068e-01
       H -2.55965e+00 -3.73652e+00  4.69924e-01
       O -3.90831e+00 -1.25562e+01  1.31189e+01
       H -4.08380e+00 -1.48084e+01  1.37769e+01
       H -4.13714e+00 -1.26125e+01  1.13065e+01
       O -8.17273e+00 -5.19210e+00  1.30717e+01
       H -7.90813e+00 -7.07133e+00  1.35804e+01