192
# CELL(abcABC):   16.99620    29.43815    27.67315    90.00000    90.00000    90.00000  Step:           0  Bead:      11 velocities{atomic_unit}  cell{atomic_unit}
       O  1.33877e-03 -1.66618e-03 -5.78921e-04
       H -1.11705e-03 -8.89134e-04 -2.08332e-03
       H  2.03525e-03 -3.00096e-03 -1.16219e-03
       O -1.72029e-04  3.34239e-04 -1.94018e-04
       H  2.14496e-03  5.79598e-03 -7.63920e-03
       H  2.49745e-04 -2.81504e-03  2.24935e-03
       O -9.34533e-04 -4.57510e-04 -4.03997e-05
       H -3.18281e-03 -4.83142e-03 -3.10821e-03
       H -5.15653e-04 -9.31818e-04  1.65531e-03
       O  6.31223e-04 -4.94111e-04 -7.06063e-04
       H  4.39862e-03  1.13746e-03 -8.19567e-03
       H  1.72313e-04 -2.88031e-03 -1.65379e-03
       O  6.36085e-04  1.19171e-04 -7.24814e-04
       H -2.75026e-04 -6.30194e-03 -3.41442e-03
       H  3.91353e-03  4.77538e-03  1.26940e-03
       O -1.18237e-03  8.67996e-04  3.73308e-04
       H  2.59066e-03  3.67935e-03 -1.71332e-03
       H  4.84341e-03  1.00951e-03  2.40025e-03
       O  4.49283e-04 -1.34290e-03 -2.96299e-04
       H  2.48310e-05 -2.07707e-03 -4.57442e-03
       H -2.10006e-03 -4.13935e-03 -4.90816e-03
       O -1.09034e-03  1.23553e-03  3.37369e-04
       H  1.73666e-04 -1.93927e-03 -3.10850e-03
       H -3.22039e-03 -2.96622e-03 -5.72762e-03
       O  1.18067e-03  8.64326e-04  2.41452e-04
       H -2.64622e-03  1.96661e-03 -6.43858e-03
       H -1.39236e-03  1.60230e-03 -1.02677e-02
       O -8.37013e-04 -1.13261e-03  7.54848e-05
       H  5.85810e-03  7.94478e-03  3.50311e-03
       H -3.94969e-03  5.07952e-04  5.48443e-03
       O -1.22778e-03  1.76238e-03  1.36988e-03
       H -3.74414e-03 -1.60982e-03 -6.88364e-03
       H  2.74192e-03 -3.32136e-03  2.19143e-03
       O  4.57946e-04  7.83524e-04  1.73627e-03
       H  4.62737e-03  1.10182e-03  5.35527e-03
       H  2.09653e-04 -4.49851e-03 -1.11873e-03
       O  2.16594e-04  2.63388e-04 -3.84598e-04
       H -4.78791e-03 -1.30810e-04  9.02215e-05
       H  5.18617e-03  2.18916e-03  6.86198e-03
       O -1.88409e-04  5.45147e-04 -9.79258e-04
       H  2.57496e-03 -2.29862e-04 -1.76409e-03
       H  1.77552e-03  9.66269e-03  4.55938e-03
       O -8.87072e-04 -1.45991e-03  1.25528e-04
       H -2.52477e-03 -4.37840e-03  6.03634e-03
       H -1.91564e-03 -7.20309e-04  1.92671e-03
       O -5.52834e-04  1.22815e-03 -1.37285e-04
       H  1.58860e-04 -2.75004e-03  4.14453e-03
       H  5.99269e-04 -4.19649e-03 -2.09929e-04
       O  4.96739e-04  5.22559e-04 -8.46218e-04
       H  1.73768e-04 -9.11147e-03 -1.79034e-03
       H -1.38352e-03  1.86368e-03  2.30998e-03
       O -2.85080e-04 -4.20522e-04  9.60243e-04
       H  3.88336e-03  1.38368e-03  1.08672e-03
       H  6.51508e-04  1.63939e-03 -6.34360e-04
       O  9.38984e-05  1.19383e-03  5.42345e-04
       H -1.46326e-03  1.83110e-03  5.26854e-03
       H -5.87505e-04  4.25186e-03 -4.32176e-03
       O  5.16197e-04 -1.89957e-03 -2.58941e-04
       H  6.67783e-03 -4.24542e-03  4.08496e-03
       H -2.66106e-03  2.41013e-04  3.46469e-04
       O -1.02933e-03 -6.46124e-04  4.96690e-04
       H  5.24824e-04 -4.93645e-03 -1.88367e-03
       H -3.78868e-03 -3.13295e-03  6.56139e-03
       O  9.77813e-04 -9.69550e-04 -5.52718e-05
       H  1.54086e-03  5.92383e-05 -1.93402e-03
       H -4.46509e-03 -1.96430e-03 -3.62621e-03
       O -2.12693e-03 -1.31394e-03  9.71733e-04
       H -2.90648e-03 -4.77266e-03  2.06090e-03
       H  7.84658e-04 -6.51191e-03 -2.94933e-03
       O  6.43725e-04  4.84249e-04  1.08570e-03
       H  1.33516e-03 -3.46423e-03  7.57097e-03
       H -7.00325e-03  7.48427e-04 -3.17053e-03
       O -3.99585e-04 -5.48177e-04  3.68028e-05
       H -2.19943e-03  6.58142e-04 -8.37205e-05
       H -3.33986e-04  1.52550e-03 -2.96909e-03
       O  6.04518e-04 -1.20717e-03  5.91139e-04
       H  5.36674e-03 -6.56472e-04 -3.17368e-03
       H -3.45654e-03 -2.06046e-05  1.09613e-03
       O  1.32978e-03 -1.46425e-03  3.40184e-04
       H  4.93466e-03 -2.94860e-03 -5.45840e-04
       H -1.30766e-03 -4.92593e-03  5.56417e-03
       O  1.44790e-03  7.83619e-04 -9.55331e-04
       H  1.13257e-03  2.91005e-03 -2.31701e-03
       H -2.27454e-03  1.08039e-03  3.28565e-03
       O  1.84388e-04  1.23821e-03  1.26957e-04
       H -3.22087e-03  4.32042e-03  7.34958e-04
       H  5.89494e-04 -4.09443e-03 -1.79558e-03
       O  6.92098e-05  6.31465e-04 -1.61392e-04
       H  3.07630e-03 -4.83011e-03  9.20227e-04
       H  9.69194e-03  1.25438e-03  1.62750e-03
       O  3.68903e-04 -4.60432e-04  6.40728e-04
       H -4.95229e-03  3.77759e-03  2.96837e-03
       H -6.26959e-03  2.72275e-04  5.87251e-03
       O -4.85019e-04 -1.53769e-03  3.89130e-04
       H  1.16948e-03  1.78413e-03  1.08370e-03
       H  6.56789e-03  1.31822e-03  1.14724e-02
       O -7.29325e-04 -1.05770e-04 -1.12397e-03
       H  2.81591e-03 -1.67781e-03  3.33308e-04
       H -6.41877e-04  6.83591e-04 -3.70423e-03
       O  6.20101e-04  1.68731e-04  2.96674e-03
       H  7.31243e-03  1.77437e-05  4.53589e-06
       H -5.53323e-04  1.49037e-03  3.94500e-03
       O  7.07102e-04 -6.93112e-04  6.27741e-04
       H  6.52906e-03  5.26010e-03  6.22320e-03
       H -2.54289e-03 -6.02292e-03  7.71795e-03
       O -5.51246e-04 -6.70729e-05  7.98006e-04
       H -2.79864e-03 -2.96329e-03  3.62681e-03
       H -1.49898e-03  3.78669e-04  1.96660e-03
       O  2.41865e-03 -1.45693e-04  9.00647e-04
       H -4.03411e-03  3.10806e-04 -5.46507e-03
       H  9.45814e-04  4.47784e-03 -6.21966e-05
       O  2.77912e-03 -9.04864e-04 -5.74657e-05
       H -6.29569e-03 -1.52845e-03 -1.41524e-03
       H -1.22774e-03 -4.02513e-03  3.27299e-04
       O  7.62225e-04 -1.31370e-03 -7.76478e-04
       H -1.89606e-03 -3.65154e-03  5.04736e-04
       H  1.43763e-03 -1.09686e-03 -1.98522e-03
       O  2.71429e-04  6.17083e-04 -1.72757e-03
       H  6.70774e-04 -2.75023e-03 -2.89466e-03
       H  3.20862e-04  3.97910e-03 -3.79628e-03
       O  6.38797e-04  7.98297e-04  1.05780e-03
       H  2.95452e-03 -5.20383e-04 -1.10861e-03
       H -3.85185e-03 -2.47060e-03 -3.04383e-03
       O -3.64040e-04  1.60722e-04  4.52810e-04
       H  8.01120e-03 -1.22403e-03 -3.44625e-03
       H  4.28404e-03 -1.08198e-03  3.37968e-03
       O  1.25517e-03  2.12721e-04 -3.54917e-04
       H -3.70598e-03 -1.75412e-03  3.55341e-03
       H -2.01143e-03  4.28165e-03  7.75226e-03
       O -2.86115e-04  5.54260e-04 -2.60157e-04
       H  2.15906e-03 -1.97885e-04 -3.14433e-04
       H  3.51029e-03 -3.39242e-03 -2.26889e-03
       O  1.10639e-03  4.61547e-04 -8.74199e-04
       H  2.23111e-03 -5.18864e-04 -5.74096e-04
       H -7.66516e-03 -3.60738e-03  1.07253e-03
       O  6.93988e-04  5.65255e-04 -5.56842e-05
       H -2.69925e-03  3.76119e-04  1.36491e-03
       H -8.91976e-04 -1.42239e-03 -3.37846e-03
       O  2.98052e-04  1.37077e-03  1.11476e-03
       H -3.50278e-03  6.56567e-03 -4.91929e-03
       H -5.03307e-04  1.04723e-03  4.22807e-03
       O -4.85787e-04 -1.68234e-03 -1.01478e-03
       H -6.29163e-03  3.84781e-03  1.00742e-03
       H  4.11728e-03 -2.08305e-03 -2.14773e-03
       O  2.32357e-05  5.40696e-06 -1.48449e-03
       H -6.05178e-04  4.07021e-03 -6.28596e-03
       H -1.26481e-03  3.85124e-03 -5.20112e-03
       O  1.80072e-03  7.92961e-05 -5.78208e-04
       H  7.00456e-03 -2.10712e-03  3.12149e-03
       H  4.17053e-03  2.63221e-03  1.77866e-03
       O -3.21108e-04  2.76966e-04 -9.59149e-04
       H -2.03184e-03  4.26323e-03  4.56124e-04
       H -5.39575e-04  2.95311e-03  3.97813e-03
       O -1.69189e-04 -7.53088e-04  1.25858e-03
       H  1.68699e-03 -4.61810e-03  7.42049e-04
       H -5.77001e-03 -3.92774e-03 -4.49535e-03
       O  1.48266e-03 -4.83199e-05 -7.18145e-04
       H  5.24492e-03 -6.44136e-03  5.41776e-04
       H  3.60007e-03  6.35017e-04 -1.36369e-03
       O -2.14789e-04 -5.33100e-04 -5.30989e-04
       H  2.85736e-03  1.10760e-03 -3.15147e-03
       H  3.15196e-03  4.00380e-03 -2.72126e-03
       O -5.43190e-04  2.11558e-04 -2.08644e-04
       H  5.47800e-03 -5.60295e-03  7.02128e-03
       H -5.72083e-03  1.38257e-03 -3.20102e-03
       O  1.92886e-07 -2.40279e-04 -8.29028e-04
       H  4.00870e-03  8.18758e-03 -4.15775e-04
       H  9.56976e-04 -4.78533e-03 -3.54235e-03
       O  5.15667e-04  3.19027e-04  1.45926e-04
       H -4.25049e-03 -2.76792e-03 -1.13243e-03
       H -4.90500e-03 -1.84572e-03  3.91858e-03
       O  7.39586e-04  3.90481e-05 -8.54406e-04
       H -9.11776e-04 -3.64768e-03  4.08229e-03
       H  5.30152e-03  3.26451e-03  2.53053e-03
       O -8.98155e-04 -7.70488e-04  1.92665e-04
       H -1.45465e-03 -3.45364e-03 -1.11160e-03
       H  2.12215e-03 -7.70292e-03  7.93496e-04
       O  5.99860e-04  1.44579e-04 -2.27686e-03
       H -3.37409e-03  2.18075e-03  4.33057e-03
       H  2.70509e-03  7.92375e-04 -4.71703e-03
       O -7.08204e-04 -5.89311e-04  9.23674e-04
       H -2.11578e-04  2.09746e-03 -7.32479e-03
       H  6.92756e-03 -4.18040e-04 -2.34416e-04
       O  1.61007e-03 -3.31286e-04  7.26435e-04
       H  3.30530e-03 -8.50980e-04 -2.44492e-04
       H -4.54101e-04  1.13910e-03 -2.08555e-04
       O -8.89888e-04 -1.59239e-04 -2.19701e-04
       H -6.04215e-04  2.20819e-03  3.93685e-03
       H  2.67051e-03  4.23203e-04 -8.06856e-03
       O -5.71813e-04  1.23163e-03 -8.87540e-04
       H  2.80595e-03 -3.06359e-03  1.39466e-03
       H  1.34501e-03 -4.39320e-03  6.43041e-06
192
# CELL(abcABC):   16.99620    29.43815    27.67315    90.00000    90.00000    90.00000  Step:          10  Bead:      11 velocities{atomic_unit}  cell{atomic_unit}
       O  1.11623e-03  1.04017e-03  6.92951e-04
       H -1.97730e-03  3.10897e-03 -4.71416e-04
       H -2.90261e-03  3.19000e-03  3.40643e-04
       O -1.21433e-03 -9.36217e-05  7.30118e-05
       H -9.22363e-04 -4.67066e-03 -1.71263e-03
       H -2.41466e-03  2.65505e-03 -2.53232e-04
       O -1.05601e-03  6.75471e-05  9.73497e-04
       H -2.49755e-03  3.61820e-03 -2.95507e-03
       H  4.02603e-04  3.69807e-03 -2.99709e-03
       O  4.33127e-04  8.50837e-04  7.40237e-04
       H  6.19778e-03  5.34436e-03  5.70067e-03
       H  2.59717e-03 -2.66043e-03  8.90014e-04
       O  9.94805e-04 -7.07008e-04 -2.83553e-04
       H -3.49584e-03  3.56381e-04  9.19869e-04
       H -2.16961e-03 -1.71813e-03  1.24355e-04
       O -3.61822e-04 -3.35902e-04 -1.04022e-03
       H -3.24359e-03  2.86896e-03  4.94480e-03
       H  7.34176e-04  5.50260e-04 -3.18826e-03
       O -4.03388e-04 -6.46169e-04 -3.67522e-04
       H -1.00369e-03  1.22268e-03 -2.91382e-03
       H -2.69224e-03  1.69205e-05  3.10968e-03
       O -1.19553e-04  9.27783e-04  8.83599e-04
       H  2.94144e-04 -2.47105e-03  1.86361e-03
       H -3.97434e-03  4.69004e-03 -1.99293e-05
       O -5.19469e-04  1.89387e-03 -4.05241e-04
       H -2.85124e-03 -7.48981e-03  3.34496e-04
       H  1.01085e-03  4.52985e-03 -6.79141e-04
       O -2.67449e-04  4.01747e-04 -1.64057e-03
       H -8.69362e-07 -5.44212e-04  7.03498e-03
       H  1.15544e-05 -1.82664e-03 -1.63843e-03
       O -2.93286e-04 -1.48236e-03 -5.86075e-04
       H -2.85076e-04 -6.28618e-03 -5.31669e-03
       H  1.85759e-04  3.70991e-03  5.65241e-03
       O -1.85821e-05 -3.78974e-04 -1.77788e-03
       H -4.73713e-03 -3.42759e-03 -9.58644e-04
       H  5.55986e-03 -6.38121e-03 -3.41500e-05
       O  1.10027e-03  2.91017e-05  1.01878e-03
       H -3.82497e-03 -6.28843e-04 -1.57874e-03
       H -4.12996e-04 -2.41879e-03 -9.44517e-05
       O  9.66153e-04 -4.59422e-04 -1.14475e-03
       H -1.75952e-05  5.91229e-04 -4.70926e-03
       H -8.60878e-04  2.09242e-03 -2.49727e-03
       O -5.54231e-04  9.24630e-04  2.43861e-04
       H -6.83609e-03 -5.06738e-03 -7.22085e-03
       H  3.74023e-04  1.45095e-03  9.28047e-03
       O -2.21146e-03  3.25344e-05 -3.94082e-04
       H -1.33008e-03 -3.61731e-03  4.08996e-03
       H  2.35094e-03  1.46518e-04  1.39946e-03
       O  5.99805e-04 -1.69267e-04 -1.36373e-03
       H -3.16700e-03  1.38936e-03  2.93943e-03
       H  1.90962e-03  7.57106e-03  5.02635e-03
       O -1.63939e-04  2.07181e-05 -4.55687e-04
       H -2.20574e-03  4.98116e-03  4.25289e-04
       H  1.01925e-03 -1.12156e-03  4.89232e-03
       O  3.34373e-04 -8.08202e-04 -3.57121e-04
       H  2.52355e-03 -1.45872e-03  4.69825e-03
       H  6.14805e-03  3.43086e-03  2.62489e-03
       O  3.70229e-05  7.91891e-04 -6.62276e-04
       H  1.12276e-03 -3.02436e-03 -3.12595e-03
       H -1.08281e-03  4.55942e-03 -6.69604e-03
       O  3.05511e-04 -2.02463e-03 -4.71242e-04
       H -3.02611e-03 -2.43697e-03  6.80688e-03
       H  1.61537e-03 -4.95234e-03 -2.90446e-03
       O -1.85649e-03 -1.47608e-03  2.32633e-03
       H -2.03759e-03 -2.74103e-03  6.58497e-04
       H -1.54449e-03  2.06896e-03  7.34617e-03
       O  2.43714e-04  2.77940e-04 -8.03673e-04
       H -8.03377e-05 -2.36213e-03  5.79509e-04
       H  1.34645e-03  2.39018e-03 -3.26362e-03
       O -1.50021e-04 -8.88520e-04 -1.66401e-03
       H -8.57087e-03 -2.41553e-04 -7.62924e-03
       H -3.26362e-06  5.66664e-03  1.35065e-03
       O  1.00185e-04 -7.99956e-04 -1.93923e-03
       H  2.24923e-06 -2.66657e-03  2.92768e-03
       H -2.40258e-04  1.67837e-03  2.88535e-03
       O  9.42988e-04 -1.70960e-03  1.77436e-04
       H -1.13783e-03  1.40487e-03  1.20152e-03
       H -1.96055e-03  5.45830e-03  2.49383e-03
       O -6.86910e-04 -1.46271e-03 -9.31176e-04
       H -1.87306e-03 -9.07984e-04  4.23546e-03
       H -5.03959e-03 -8.22805e-03  2.39736e-03
       O  5.51466e-04 -7.99136e-04 -4.02498e-04
       H  1.12316e-03  2.77241e-03 -6.00317e-04
       H  5.94070e-04 -1.73025e-03 -1.73572e-03
       O  8.73357e-04 -4.54284e-05  8.38325e-04
       H  1.66775e-03 -2.52167e-03 -1.63335e-03
       H  4.12321e-04 -6.49864e-05 -9.93679e-04
       O  6.79332e-04 -8.30300e-04 -4.35974e-04
       H  2.07428e-03 -6.14099e-03 -3.08679e-03
       H  5.22249e-03  4.23280e-03 -5.78038e-03
       O -1.12829e-04 -1.03691e-04 -4.40995e-04
       H  1.69931e-05 -6.48622e-04  2.78475e-05
       H -2.83779e-03 -4.44005e-03  2.26308e-03
       O -3.34317e-04 -5.80967e-04 -5.19884e-04
       H -6.36154e-03  8.18673e-03  7.75701e-03
       H  4.10772e-03  1.53421e-03  3.78879e-03
       O  5.20422e-04  1.96503e-03 -6.18483e-04
       H  3.56294e-03 -7.47995e-04 -3.72558e-03
       H  1.00150e-03 -2.43300e-03  1.71212e-03
       O -3.26889e-05  1.13406e-03  7.52501e-04
       H -3.56438e-03 -5.24764e-03  3.55566e-03
       H -2.88916e-03 -9.30048e-04  2.20190e-03
       O  2.35025e-04 -6.11649e-04  1.43288e-03
       H  2.67398e-03 -2.66823e-03  7.15366e-05
       H -4.66196e-03  6.57590e-03  4.94500e-03
       O  3.62895e-04  7.03954e-04  1.19037e-03
       H  5.64059e-03 -1.15776e-03  3.57139e-04
       H -1.10877e-03  5.70880e-03 -1.62706e-03
       O -1.34199e-03  2.58185e-04 -6.81303e-04
       H -4.23725e-03  4.70915e-03 -1.19772e-03
       H  3.09640e-03  1.06392e-03 -6.61372e-04
       O  9.42571e-04 -1.27435e-03 -1.40209e-03
       H -3.46586e-03 -1.15831e-03 -3.21995e-03
       H -4.30494e-03 -1.58257e-03  4.67448e-03
       O  1.71023e-03 -2.25047e-03  3.28052e-04
       H  3.37293e-03 -3.17854e-03 -6.76192e-03
       H -3.52665e-03  2.30237e-03  4.20927e-03
       O  1.03514e-03  6.55170e-05  5.58510e-04
       H -6.05953e-05 -6.51589e-03  1.20048e-03
       H  2.83553e-03 -1.79720e-03  3.81017e-04
       O -1.88379e-04 -1.34896e-03 -2.09416e-04
       H  1.23268e-03 -2.30725e-03 -6.22317e-03
       H  1.43038e-03  4.23219e-03  2.93012e-03
       O -8.98211e-05 -7.09186e-04  2.82156e-04
       H  1.76558e-03  4.56124e-03  9.30772e-03
       H  5.19621e-03 -2.55926e-04 -1.32159e-03
       O -7.57156e-04  6.80863e-04  3.23475e-04
       H -4.82119e-04 -2.80904e-04  2.38504e-03
       H -8.85736e-05 -7.74046e-04 -1.57172e-03
       O  5.76356e-05 -2.50830e-04 -6.06950e-04
       H  8.66816e-03  3.19955e-03  3.04653e-04
       H -4.45953e-03 -8.86565e-04 -4.78485e-03
       O -6.26603e-04 -2.09707e-03 -4.81253e-04
       H  3.10218e-03  1.56331e-03  1.66142e-03
       H  5.65196e-03  1.01811e-04 -1.69406e-03
       O -6.80299e-04 -1.50196e-04 -3.86087e-04
       H  2.27463e-03  2.13924e-03  3.22189e-03
       H -3.60710e-03 -3.92208e-04  3.56048e-04
       O  6.48610e-04 -1.12905e-03  1.26785e-04
       H -2.07711e-03  1.42679e-03  8.70536e-04
       H -1.78179e-03  1.32229e-03 -4.16605e-03
       O  1.05867e-03 -8.76256e-04 -2.13713e-04
       H  2.95991e-04  3.06624e-03  6.59281e-03
       H  1.15808e-03  3.43041e-03  3.67355e-03
       O -2.81326e-04  2.01253e-05 -9.39579e-04
       H -5.09999e-04 -6.44162e-04  2.16416e-03
       H  5.24638e-03  1.01749e-03 -1.18187e-03
       O -1.06816e-03 -1.08982e-03 -2.35697e-04
       H  1.78313e-04 -2.24887e-03  4.08449e-03
       H  8.33429e-04  7.22477e-03 -9.37389e-03
       O  4.57985e-04 -2.61628e-04 -1.20679e-03
       H  3.78637e-03  3.55237e-04  1.01204e-03
       H -1.95118e-03  1.75350e-03 -1.09856e-03
       O -2.22855e-04  4.29378e-04  2.13855e-03
       H -7.41976e-03  6.08987e-04  4.81140e-03
       H  4.04241e-03 -4.08912e-04  6.36030e-03
       O  1.82610e-03 -1.91687e-04 -4.52945e-04
       H -4.02401e-05  9.21512e-05  2.16231e-03
       H  4.54380e-04 -9.77656e-04  1.16108e-03
       O  4.52597e-04  9.16631e-05 -9.61122e-04
       H  2.65340e-03 -9.15231e-05 -3.25189e-03
       H  2.53208e-03 -4.13540e-03 -9.84599e-05
       O -6.57489e-04  6.78524e-05  4.29979e-04
       H -6.60873e-03 -5.68528e-03 -4.47417e-03
       H  4.64935e-03  3.97181e-03 -1.05350e-03
       O -1.64300e-03 -1.42934e-03  1.24146e-03
       H -5.95381e-04  2.52679e-06 -3.17711e-03
       H -2.16294e-03 -3.08138e-03  3.17010e-03
       O -4.38923e-04  1.48221e-04 -1.44475e-03
       H -4.39390e-03 -4.82453e-03 -5.99976e-03
       H -3.28258e-03 -3.10448e-03 -5.37985e-03
       O -6.90611e-04  1.68079e-04 -6.53981e-04
       H  3.71395e-03 -5.97791e-03 -1.76240e-03
       H  4.14975e-03 -1.85119e-03  3.36100e-04
       O -6.18170e-04  3.16358e-04  1.23182e-03
       H -4.79115e-03 -2.30146e-03 -1.06838e-03
       H -3.81617e-03 -4.33659e-04 -4.51561e-03
       O  1.21225e-04  1.60082e-03 -5.55152e-04
       H  1.55996e-04  5.41293e-03  1.45321e-03
       H  4.84274e-03 -3.41692e-03 -2.14040e-03
       O -4.55006e-04  1.03015e-03  1.60669e-03
       H  2.23883e-03  2.55061e-04  2.27117e-04
       H -2.12252e-03  2.21054e-03 -5.95460e-03
       O -4.39553e-04 -8.93452e-04 -1.04729e-03
       H  2.73994e-03  2.00423e-03  1.22075e-03
       H  3.26285e-03 -3.96730e-03 -2.64140e-03
       O -4.90992e-04  2.37787e-04 -1.59336e-03
       H -4.02361e-03  9.87801e-04  5.22082e-04
       H -5.97435e-04  2.28830e-03 -4.12875e-03
       O  2.24844e-03  5.69015e-04  1.32027e-03
       H -3.08296e-03 -1.02836e-03  3.21200e-03
       H -4.00852e-03  1.24253e-03 -1.90434e-04
192
# CELL(abcABC):   16.99620    29.43815    27.67315    90.00000    90.00000    90.00000  Step:          20  Bead:      11 velocities{atomic_unit}  cell{atomic_unit}
       O -4.37390e-04  2.06143e-04  2.13232e-04
       H -2.12542e-03 -7.69781e-04 -3.11469e-03
       H -2.61209e-03  3.48707e-03 -5.27387e-03
       O -7.71076e-04 -1.71171e-04 -1.58385e-04
       H -4.67162e-03 -2.93587e-03  6.67996e-03
       H -3.56023e-03 -3.55035e-03 -3.12966e-03
       O  1.05657e-03 -1.39816e-04  2.11923e-04
       H  1.91817e-03  3.19803e-03 -5.54395e-04
       H  1.82716e-03 -2.86324e-03 -6.42721e-03
       O -4.80629e-04  2.76876e-03  1.91233e-03
       H -7.04432e-04 -2.93485e-04 -4.29491e-03
       H -2.60403e-03 -9.76817e-04 -3.19844e-03
       O  3.69575e-05 -1.07079e-03 -2.73339e-04
       H  4.78475e-03  2.99945e-04 -4.82127e-04
       H  8.01057e-04 -7.28793e-03  3.14097e-03
       O  1.54325e-03 -7.07825e-04 -7.87152e-04
       H -9.19441e-04  1.18761e-03 -4.77549e-03
       H  5.55385e-03 -7.72382e-04 -6.57392e-03
       O  2.47110e-04 -4.85869e-04  1.21694e-03
       H -2.14952e-03  2.65144e-03  6.00154e-04
       H  3.04114e-03  4.44363e-03 -3.57323e-03
       O -7.66186e-04  6.49858e-04 -1.47959e-03
       H  5.37142e-05 -2.75863e-03  4.51823e-03
       H  3.12960e-03  1.70613e-04 -1.24551e-03
       O  9.36315e-04  5.85758e-04  2.82416e-04
       H  4.39001e-03  4.07153e-03 -2.67920e-03
       H -7.23991e-03  7.49445e-04 -2.16642e-03
       O  8.34155e-05  1.52089e-03 -1.70726e-03
       H  1.93720e-03  2.43516e-03 -5.62267e-03
       H  1.56268e-03  1.98086e-03 -7.53054e-04
       O -8.25741e-04 -3.83548e-04  4.82985e-04
       H -4.31228e-03 -6.77038e-03  4.95699e-03
       H  4.83985e-03  2.06329e-03 -2.38905e-03
       O  3.05403e-04 -5.34201e-04  5.56547e-04
       H  1.90504e-03  3.70907e-03 -3.38091e-03
       H -9.62579e-05  1.90238e-03  9.56554e-04
       O  3.58196e-04  1.81227e-04 -1.98563e-03
       H -3.44237e-03 -4.68558e-03  7.33916e-04
       H  3.71924e-03 -1.36502e-03  4.64142e-03
       O -1.31390e-03  8.67841e-04 -9.76214e-04
       H -2.63201e-03  1.60433e-03  2.59950e-03
       H  2.08235e-03 -3.46724e-03  2.42314e-03
       O -1.86876e-06 -6.05404e-04  2.29646e-04
       H -4.09068e-04 -3.03260e-03  1.88969e-03
       H -4.93265e-03 -6.33125e-03 -6.65748e-03
       O -1.10168e-03 -6.42981e-04  1.30320e-03
       H  1.69427e-03 -3.97169e-03 -4.64298e-03
       H  3.21698e-03  6.37944e-03 -9.61928e-05
       O -8.18516e-04 -1.08119e-03 -5.35384e-04
       H -2.18292e-03  1.21208e-04 -1.02153e-03
       H -3.68088e-04 -4.82004e-03 -1.36221e-03
       O  1.90789e-04  1.77027e-04 -1.04964e-03
       H -1.07115e-02 -5.69341e-03 -3.31855e-03
       H  2.51243e-04 -5.45897e-03  4.85083e-03
       O  8.86021e-04 -4.71803e-04  7.70047e-05
       H -1.53850e-03 -5.08790e-04  1.03422e-03
       H -2.04595e-03 -3.50400e-03 -3.30527e-03
       O  1.76272e-04  2.33689e-04  1.08198e-03
       H -3.81029e-04 -5.12948e-03 -4.30844e-04
       H  1.78646e-03  2.12963e-03  6.62815e-05
       O  1.47504e-03  8.66189e-04 -7.20089e-04
       H -1.73000e-03  1.84599e-03  4.31594e-04
       H -1.37826e-03  1.17646e-03 -6.33735e-04
       O -1.56173e-03  6.17264e-04  2.28201e-04
       H -7.48050e-04  1.44109e-03  4.55382e-03
       H  7.50949e-03  3.66739e-03  7.40861e-03
       O -1.52333e-03  7.17369e-04  1.14015e-03
       H  9.55718e-04  2.77792e-03  5.33836e-03
       H -1.98853e-03  4.97541e-03 -2.11346e-03
       O -6.39734e-04 -8.58620e-04  6.26026e-04
       H  2.01680e-03 -2.10098e-03 -4.67115e-03
       H -1.82958e-03 -9.02088e-05  6.13459e-04
       O -6.85548e-04  9.91959e-04 -3.51881e-04
       H -1.45298e-03 -1.64095e-03 -1.50599e-03
       H  2.99243e-03 -2.91258e-03  2.37251e-04
       O -1.48350e-03  8.34063e-04 -6.15271e-04
       H -2.30989e-03  1.68178e-03  1.69669e-03
       H  2.11795e-04  2.66422e-03 -1.98169e-03
       O  1.58584e-04  8.05110e-04 -2.17509e-05
       H -7.32515e-04 -3.63553e-03  5.54290e-03
       H -3.15271e-03 -2.49917e-03 -1.92029e-03
       O  1.07633e-04  1.30624e-03  2.76835e-04
       H  9.90007e-03  5.55641e-03  1.11807e-03
       H -2.30296e-03  3.26710e-03  1.18726e-03
       O -3.91131e-04  4.12640e-04  9.19828e-04
       H  1.85333e-03  9.16096e-04 -1.58519e-03
       H  4.47410e-03  2.73426e-03 -2.54707e-03
       O  7.48574e-04  1.57045e-04 -1.06894e-04
       H -5.15204e-04  7.54966e-03  5.25824e-03
       H -3.32961e-03 -5.70123e-04 -1.91127e-03
       O -1.14283e-03 -5.83732e-04 -1.57203e-03
       H  4.76639e-03  2.87909e-03 -2.06065e-03
       H  3.17772e-03  5.10352e-03 -1.50147e-04
       O -5.03255e-04  1.32680e-03  3.26022e-04
       H -4.80767e-04  6.18380e-03 -2.79698e-03
       H  5.21859e-03  4.56923e-03  6.06086e-03
       O  4.25182e-04 -1.22509e-03 -2.49201e-05
       H -3.63162e-03 -5.83971e-03  4.30478e-03
       H  3.04840e-03 -1.91707e-03 -3.59668e-04
       O -2.87451e-04  7.99611e-05  6.89941e-04
       H -4.53415e-03 -4.29393e-03  5.30460e-03
       H -1.88535e-03  1.86748e-03  2.86951e-04
       O  1.45513e-03  2.80625e-04  2.84641e-04
       H -2.87030e-03  2.46290e-03  4.21180e-03
       H -1.92909e-03  5.37027e-03  1.39568e-03
       O -1.40869e-03 -4.82444e-04  3.63313e-04
       H  1.32613e-03  7.46662e-04 -3.63536e-03
       H  5.76229e-03 -3.31643e-03 -4.58237e-04
       O  5.00804e-04  9.32335e-04  1.98801e-03
       H -2.53889e-03  1.09763e-03 -2.70697e-03
       H -2.31251e-03 -5.62860e-03 -4.27864e-03
       O -8.02669e-04 -1.19319e-03 -8.72343e-04
       H -4.19984e-03 -2.33074e-03 -2.50259e-03
       H  2.72061e-03  1.34877e-04 -6.60729e-03
       O -7.99510e-04 -1.79055e-03  1.16507e-03
       H -1.27868e-03 -4.61358e-03  1.59720e-03
       H  6.91616e-03  8.75850e-04  4.09688e-03
       O  1.01060e-03  1.30495e-03  5.28102e-04
       H -3.94629e-03 -2.34554e-04 -1.01824e-03
       H -3.03356e-03  2.26909e-03 -4.60616e-04
       O -8.05564e-04 -9.37786e-04  1.81367e-03
       H -2.65870e-03  2.25396e-03 -5.46708e-03
       H  2.79955e-03 -5.06301e-03  2.32909e-04
       O  1.24014e-03 -8.77140e-05  8.05149e-04
       H -4.89165e-03 -3.45798e-04  7.09328e-03
       H  1.70833e-03 -4.66332e-03 -7.84768e-03
       O  5.03578e-05  1.06798e-03  1.45846e-03
       H -2.17606e-03 -3.46528e-03 -6.75280e-04
       H -4.13366e-03 -1.33932e-03  5.86803e-03
       O  9.45380e-04  9.48971e-04 -1.00560e-03
       H -6.19769e-04 -2.54190e-03 -1.73464e-03
       H -7.08188e-04  2.38342e-03  3.92062e-03
       O  5.15513e-04  1.32797e-03 -4.15524e-04
       H -3.30890e-03  1.39922e-04 -1.16713e-03
       H  1.36516e-04  2.84254e-03 -1.97299e-03
       O -4.36705e-04 -6.11121e-05  9.41623e-04
       H  8.74858e-04 -6.15490e-03  3.61594e-03
       H  4.66146e-04 -6.58879e-04  4.95969e-03
       O -6.90997e-04  1.26259e-03 -3.60350e-04
       H -5.90825e-03  3.51039e-03  3.95455e-03
       H -2.46560e-03 -6.37740e-03  2.68254e-04
       O -5.06297e-04 -1.86380e-03 -2.16722e-04
       H -2.39365e-03  5.82749e-04  3.72108e-03
       H -5.46876e-04  7.16304e-03 -7.90214e-04
       O -8.99101e-05  1.28841e-03  6.24092e-04
       H  4.47978e-03  1.78902e-03 -4.19013e-03
       H -7.27878e-04  1.33296e-03 -1.88050e-03
       O -8.53225e-05 -1.06736e-03  1.12107e-03
       H -1.39464e-03 -2.95012e-03 -1.63002e-03
       H -1.68949e-03  1.51347e-03  1.13464e-05
       O -1.71911e-03  1.63298e-03 -1.29859e-03
       H  1.65850e-03 -3.14703e-03  9.26195e-04
       H  4.31455e-04 -2.11778e-03 -1.02493e-03
       O -1.46226e-03  3.30217e-04  7.06425e-05
       H  3.91887e-04  1.51295e-03  9.99761e-04
       H -2.84721e-03  2.39668e-03  2.15864e-03
       O -1.49917e-04 -1.28351e-03  1.11012e-03
       H -5.92959e-05 -3.08677e-03  6.68689e-03
       H  5.80808e-03 -3.15375e-03  2.23507e-03
       O  8.76363e-04 -1.32092e-03  1.46844e-03
       H -2.25967e-03  3.25956e-03 -5.59706e-03
       H -5.51327e-03 -1.89725e-03  6.75490e-04
       O  4.42171e-04  9.50106e-04  1.44136e-03
       H  8.83486e-04  5.18307e-04  2.40337e-03
       H  2.44876e-03  1.96722e-03  3.95391e-04
       O -1.67257e-03  6.97762e-04  6.87377e-04
       H -1.84091e-03  3.09879e-03  3.27540e-03
       H  1.86667e-03  6.38079e-04 -1.54730e-03
       O -4.73528e-04 -7.64924e-04 -1.58967e-03
       H -2.72207e-03 -3.48054e-03  3.04110e-03
       H  2.52435e-03  2.30243e-04  1.13168e-03
       O -1.07075e-03  1.60327e-03 -8.61997e-04
       H -5.91877e-03  3.86889e-03  7.48285e-04
       H  1.28388e-03  1.12037e-04 -1.55746e-03
       O -1.55676e-03 -1.19012e-04 -1.03058e-03
       H  1.25393e-04  5.69288e-03 -1.90677e-03
       H -2.28346e-03 -5.64414e-03  5.02945e-03
       O -6.17077e-04 -4.91645e-04 -9.95536e-04
       H  3.73239e-03  1.66748e-03  5.58744e-03
       H  3.39360e-04 -6.42219e-04  2.93966e-03
       O -4.80193e-04 -1.00075e-03  1.04785e-03
       H -4.42390e-03 -6.55066e-03 -7.72964e-04
       H -2.74717e-03  1.32351e-03  1.95834e-03
       O -8.05829e-04 -9.92923e-04  1.34877e-03
       H -5.80646e-03 -1.88639e-03  7.07883e-04
       H -7.72956e-03 -4.15711e-05  3.30563e-03
       O  9.84006e-04 -6.86043e-04  2.40135e-04
       H -6.41541e-03  1.79849e-03  1.80430e-03
       H  2.31751e-03 -1.23924e-03  4.42586e-03
       O  1.16703e-03  2.31578e-04 -7.40103e-05
       H -8.21130e-03 -6.80251e-03  4.80708e-04
       H -1.24687e-03  4.89689e-03  4.46624e-03
192
# CELL(abcABC):   16.99620    29.43815    27.67315    90.00000    90.00000    90.00000  Step:          30  Bead:      11 velocities{atomic_unit}  cell{atomic_unit}
       O -7.03382e-05  4.97095e-04  8.14312e-04
       H  2.53367e-03  1.74350e-03 -5.40456e-03
       H  6.20706e-03 -5.57373e-03 -5.03754e-04
       O -7.91711e-04  3.63671e-04  1.40463e-04
       H  3.69068e-03 -5.04585e-03 -2.61792e-03
       H -2.42137e-03 -3.28274e-03 -4.39033e-03
       O -4.38610e-04  1.02099e-03  2.70000e-04
       H  2.13056e-03  2.67568e-03  1.92165e-03
       H  3.75507e-03  3.20594e-03  6.64684e-03
       O  4.38078e-04 -1.75399e-03 -4.58617e-04
       H  4.92954e-04  2.41124e-04  2.06899e-03
       H -3.48962e-03  3.46546e-03 -8.76026e-04
       O  7.66836e-05 -8.96078e-04  3.83127e-04
       H  3.07416e-03  1.13448e-03 -2.17699e-03
       H  2.82687e-03 -2.14866e-03  5.11832e-03
       O -1.59755e-06 -1.71711e-03 -5.23087e-04
       H  1.83464e-03 -1.12483e-03 -3.66330e-03
       H -2.20081e-03 -2.21485e-03  2.31370e-03
       O  1.79364e-03 -8.86392e-04  9.82651e-05
       H  9.92111e-03  1.97174e-03  5.02634e-03
       H  1.82374e-03  4.32622e-03 -9.22055e-04
       O -2.12332e-04  2.43865e-04 -1.11154e-03
       H  5.02176e-03  3.83400e-03 -4.64551e-03
       H -4.73027e-03  5.95638e-05  1.79134e-03
       O -6.72031e-05  9.49690e-04  4.13448e-04
       H  1.93822e-03  1.64355e-04  1.15710e-03
       H  3.16274e-03 -1.23892e-03 -2.62257e-03
       O  1.38551e-03  2.30242e-04  1.60366e-03
       H -2.07624e-04  5.52739e-03 -1.73859e-03
       H  1.08043e-03  1.91412e-03 -4.93219e-03
       O  5.68311e-04  3.22169e-04 -7.77940e-05
       H  1.65637e-03  3.26995e-03 -4.35572e-03
       H -2.15361e-03  1.45118e-03  1.28891e-03
       O  7.64045e-04  8.14226e-04 -2.48723e-04
       H  3.20857e-03  9.90893e-05 -2.98779e-03