192
# CELL(abcABC):   16.99620    29.43815    27.67315    90.00000    90.00000    90.00000  Step:           0  Bead:       9 velocities{atomic_unit}  cell{atomic_unit}
       O  7.00294e-04  1.84255e-04  5.85786e-04
       H -1.48241e-03 -5.12895e-04  2.53181e-03
       H  3.87732e-04  4.23129e-03 -4.74620e-03
       O  6.06682e-04 -5.44605e-04  2.47891e-03
       H  1.35255e-03 -2.07900e-03  6.90051e-04
       H  3.49487e-04 -3.35421e-03 -8.49013e-03
       O -1.94024e-03  1.15173e-03  7.38213e-04
       H -2.92408e-03  5.28690e-03  3.54274e-03
       H -7.35080e-03  2.79340e-03 -1.15205e-03
       O -4.67527e-05  2.50617e-04  6.10480e-05
       H -4.64236e-03  4.89477e-04 -3.93763e-03
       H -5.94443e-03  2.72302e-03 -4.32844e-03
       O  3.83565e-04  4.70783e-04  6.78191e-04
       H  1.19915e-03 -3.42436e-03 -2.02680e-03
       H  7.00693e-03 -1.33203e-03  1.31450e-03
       O -9.30894e-04  7.82883e-04 -5.16833e-04
       H -3.59598e-03 -3.46890e-03  7.56032e-04
       H  3.27616e-03  2.79237e-03 -4.63715e-03
       O  1.34439e-03  5.52052e-04 -7.00267e-04
       H -8.70652e-03 -1.17141e-03 -1.04394e-03
       H -2.04166e-03 -6.28207e-03  2.48122e-03
       O  5.24151e-04 -3.79009e-04  2.97915e-04
       H  1.15903e-04  2.66479e-03  2.26248e-04
       H -1.34457e-03 -1.68321e-03 -2.71221e-03
       O  4.63232e-04  1.62049e-03  7.98292e-05
       H  1.38228e-04 -2.70791e-03 -1.99799e-03
       H -2.11890e-03  4.04895e-03  7.74200e-04
       O  2.36837e-04 -6.65134e-04 -9.82978e-04
       H  1.58229e-03  3.28656e-05  2.39585e-03
       H -6.05836e-04 -4.99289e-03  3.63771e-03
       O  8.99799e-04  1.08973e-03 -8.85928e-04
       H  3.78356e-04 -2.32108e-03  3.57525e-03
       H  5.65225e-04 -3.11431e-03 -3.82527e-03
       O  9.22896e-04  4.24442e-04 -1.37048e-03
       H  4.92203e-03 -3.96641e-03 -7.39059e-03
       H  2.27151e-04 -1.40833e-03 -5.40854e-03
       O -2.38031e-04 -3.37298e-04  1.35886e-03
       H  2.66226e-03 -7.72533e-03  8.57537e-03
       H -1.33954e-04  4.63736e-03 -5.21638e-03
       O -1.19941e-03 -2.14973e-04 -8.49039e-04
       H  1.18560e-03  1.45894e-04  3.57613e-04
       H -2.99019e-03 -1.40900e-03 -4.13691e-03
       O -7.52477e-04 -4.92212e-04 -8.75125e-04
       H -1.21329e-03 -2.69601e-03 -2.25826e-03
       H -5.17320e-03 -3.48875e-03  2.83480e-03
       O -1.96141e-03 -8.26350e-04 -7.41247e-04
       H  1.42463e-04 -5.93066e-03  5.91192e-03
       H  4.68406e-03  2.78152e-04 -6.22261e-04
       O -4.24208e-04 -1.03474e-03 -1.97143e-04
       H -3.15007e-03 -3.49506e-04  7.40311e-04
       H  2.93570e-04 -1.28463e-03 -1.35790e-03
       O -1.65869e-03  1.42494e-03 -3.05262e-04
       H -4.56494e-04  5.81514e-04 -3.23034e-03
       H  4.36373e-03 -5.80931e-03 -1.87684e-04
       O -3.58720e-04  8.44483e-04  7.32778e-04
       H  3.37963e-03  5.04762e-03 -2.89615e-03
       H -1.29865e-03  1.89342e-03 -4.11192e-03
       O  2.50855e-04  1.10820e-03 -1.09916e-03
       H  3.94162e-03 -2.73579e-03  1.62341e-03
       H  5.24697e-03  6.63129e-03  2.59239e-03
       O -4.76696e-05  1.49785e-03  2.24767e-03
       H -8.13740e-04 -3.46636e-03  6.48735e-04
       H  1.82905e-03 -2.64164e-03  2.16514e-03
       O  7.83654e-04 -9.15546e-04 -6.94918e-05
       H -7.63096e-04 -3.09814e-03  5.07092e-03
       H -7.21987e-05 -3.28323e-03  6.87914e-04
       O  1.02624e-03  2.47883e-04 -1.66775e-03
       H  1.91375e-03 -4.53362e-03  1.20696e-03
       H  3.58764e-03  3.93425e-03 -4.34884e-03
       O  4.46101e-04  1.91648e-04 -1.69933e-03
       H  4.47856e-03 -1.30755e-03 -1.95019e-03
       H -6.37488e-04  7.32900e-03  5.39242e-03
       O  1.98760e-03  8.19341e-04  1.52088e-03
       H -1.28635e-03  2.96578e-03 -3.36191e-03
       H -4.30028e-03  7.09829e-04 -4.36826e-03
       O -1.01227e-03  5.26903e-04  1.73525e-04
       H  2.20033e-03 -1.58238e-03  1.15372e-03
       H  3.33660e-03 -1.86894e-03  2.68711e-03
       O -1.49278e-03 -9.88736e-04  1.59275e-03
       H  4.63980e-03 -7.97957e-04  2.89985e-04
       H  3.87073e-03  3.50899e-03  1.11497e-03
       O  5.24184e-04  2.97408e-04  1.66408e-04
       H -4.72182e-03 -1.62247e-03 -8.85449e-03
       H -3.97077e-03 -6.17607e-03  2.24101e-03
       O  2.11515e-04  1.16062e-03 -5.74423e-04
       H  5.06923e-03  4.78631e-03 -5.36213e-03
       H  2.21789e-03  1.79668e-03  3.83911e-03
       O -1.54876e-03  2.36683e-04 -1.34322e-04
       H  1.08564e-03  1.17314e-03 -4.72246e-03
       H  4.87105e-03 -3.79091e-04 -1.27279e-03
       O -9.81015e-04 -5.76912e-04  1.75948e-03
       H -2.17759e-03 -5.80023e-03  3.11161e-03
       H  7.44677e-04 -1.73237e-03  4.85075e-03
       O -1.69440e-04 -1.08735e-03 -9.87999e-04
       H  1.50785e-03  5.88147e-03  2.59619e-03
       H -7.37604e-03 -9.97535e-04 -2.13628e-03
       O  1.11839e-03 -3.91998e-04  2.18564e-04
       H -5.59000e-03 -2.02011e-03 -1.76742e-03
       H -6.02229e-03 -5.55917e-03 -4.28485e-03
       O -6.42282e-04  1.37234e-04 -3.47264e-04
       H  5.98490e-03 -3.26319e-03  2.66733e-03
       H -3.22750e-04  4.16093e-03 -1.95258e-03
       O -3.98225e-05  6.78765e-04 -6.70731e-04
       H -3.63671e-03 -2.72527e-03 -2.54885e-03
       H  2.32557e-03  8.43486e-04 -3.06914e-04
       O -3.14958e-03 -5.02360e-04 -2.91810e-04
       H  6.64652e-04 -5.12907e-03 -3.56792e-03
       H  7.84224e-03  1.40945e-03  1.25307e-03
       O -9.39273e-05 -3.37677e-04 -7.57478e-04
       H  2.04135e-03 -4.06935e-03 -2.60942e-03
       H  1.08283e-03  2.67044e-03  3.12405e-03
       O -9.58509e-04  9.30260e-04 -3.00464e-04
       H  1.01413e-03 -7.58450e-03 -2.70373e-03
       H -6.46028e-03 -9.18753e-04 -3.23647e-03
       O  2.54514e-04  5.53795e-04  2.07138e-03
       H  3.61165e-03 -3.67722e-03  8.03260e-03
       H  9.36846e-04 -3.42304e-03 -6.39317e-04
       O  1.03376e-03 -6.33667e-04 -1.32526e-04
       H  6.06771e-03  6.53176e-04  3.25297e-03
       H  1.21033e-03  5.01521e-03  2.00382e-03
       O -2.79419e-04  3.39527e-04  1.64980e-03
       H  1.12749e-02  4.77737e-03  3.67135e-03
       H -1.10218e-03  4.15722e-03  1.78466e-03
       O -1.29788e-04  1.38673e-04  7.70663e-04
       H -1.75321e-03 -2.13333e-03  2.52089e-03
       H -4.31902e-03 -2.25793e-03  1.93053e-04
       O  1.16074e-03 -5.27149e-04  9.46585e-04
       H -9.31285e-04 -5.15206e-03 -2.32527e-04
       H -4.02836e-05  3.18889e-03  2.67498e-03
       O  9.96565e-04  1.12050e-03  7.60410e-04
       H  3.77447e-04  1.21429e-03  5.69306e-03
       H -3.75894e-03 -1.25809e-03  3.62610e-03
       O  2.98809e-04 -9.19809e-04 -1.04532e-03
       H  2.77414e-03 -3.21402e-04 -2.98781e-03
       H  4.44492e-04  2.63446e-03  1.64994e-03
       O -6.18949e-04 -2.11905e-03  1.43141e-04
       H  1.10017e-03  4.30790e-05 -2.46779e-03
       H -2.11214e-03  9.77920e-04 -1.87041e-03
       O -1.45501e-03  7.60085e-04 -2.15507e-05
       H -3.46792e-03 -5.33091e-03 -1.01611e-03
       H  3.80127e-03  1.35311e-04  1.48628e-03
       O  3.45348e-04  2.62222e-04 -4.72968e-05
       H  5.06109e-03 -4.83126e-03 -8.73844e-04
       H -1.92583e-03  7.62763e-04 -2.72154e-03
       O -7.55652e-04 -3.10933e-05  2.13165e-03
       H -3.85633e-03 -1.24220e-03 -1.31208e-02
       H -3.94739e-03 -2.47914e-03 -1.50852e-03
       O -9.63564e-04  3.85322e-04 -6.65675e-04
       H  3.31870e-03 -1.56631e-03 -3.03221e-03
       H -5.46379e-03 -7.03570e-04  3.80028e-04
       O -3.17428e-04  1.45356e-03  1.56587e-04
       H  2.30145e-03  2.55491e-03 -2.82701e-03
       H  1.20898e-03  5.16354e-03 -9.67595e-04
       O -1.94764e-03 -1.76479e-04 -1.09947e-03
       H  5.46433e-03 -4.09512e-03  4.36881e-03
       H  4.45543e-03 -1.03607e-03 -2.60779e-03
       O  5.04791e-05 -2.83073e-04  1.57067e-04
       H  1.80490e-03 -4.23216e-04 -2.01628e-03
       H  1.08547e-03  2.81646e-03  6.73148e-03
       O  7.17581e-04  4.11341e-04  1.50869e-04
       H -3.49789e-03  1.39414e-03 -2.90330e-03
       H  1.69892e-03  1.35511e-04 -2.87620e-03
       O -1.45512e-04 -1.66213e-03 -3.31712e-04
       H  4.38613e-03 -3.95483e-03  2.51034e-03
       H -1.96884e-03  3.09548e-03 -1.57888e-04
       O -7.00479e-04 -1.75753e-04  1.01653e-03
       H -2.18735e-04 -1.00119e-03 -4.40023e-03
       H -3.74254e-03  3.80839e-04  1.87581e-03
       O -3.65606e-04 -2.45071e-04  3.73049e-04
       H -5.46437e-03 -2.22569e-03 -5.03467e-03
       H  4.34088e-03 -4.09945e-03 -4.85084e-03
       O -5.44781e-04 -4.57838e-05  4.92630e-04
       H  3.20369e-03  5.74186e-03  1.08263e-03
       H -2.59561e-03 -3.26638e-03 -1.50569e-04
       O  7.51425e-04  1.13353e-03 -4.71267e-04
       H -4.88144e-05  8.90584e-04 -4.38155e-04
       H -1.35243e-03  4.33704e-03 -1.73405e-03
       O  1.78781e-05 -8.35744e-04 -3.11847e-04
       H -3.07479e-03 -5.19479e-03  2.41877e-03
       H -5.27786e-03  1.23119e-03  1.89380e-04
       O -3.31603e-04 -2.81886e-04 -1.48956e-03
       H  9.04171e-04  5.20992e-03 -2.32569e-03
       H -3.33984e-03 -6.26760e-04  8.22691e-03
       O -1.69841e-04 -1.35805e-03  4.36646e-04
       H  4.21455e-03 -1.88507e-03 -1.00414e-03
       H -8.10386e-03 -2.52535e-03 -9.34321e-04
       O -7.68947e-04  4.00930e-04  1.08044e-04
       H -1.74841e-03  8.35727e-03  2.06512e-03
       H -5.88892e-04 -1.19243e-03 -5.05729e-04
       O  4.01718e-04 -6.16090e-04  1.18393e-03
       H -4.67663e-03  8.53978e-04  1.77189e-03
       H  1.44714e-03  2.36340e-03  1.02176e-03
192
# CELL(abcABC):   16.99620    29.43815    27.67315    90.00000    90.00000    90.00000  Step:          10  Bead:       9 velocities{atomic_unit}  cell{atomic_unit}
       O  1.08956e-04 -7.14268e-04  4.71110e-06
       H -6.53813e-03 -2.70289e-03 -3.02643e-03
       H  2.16993e-03  1.76020e-03 -2.79811e-03
       O  8.14761e-04  6.96873e-04  3.49098e-04
       H  2.29164e-03 -3.41853e-03 -1.80501e-03
       H -7.09863e-03  2.69455e-03  9.58649e-04
       O -1.08088e-03  7.56646e-04 -3.02482e-04
       H  4.30001e-03 -6.84897e-04  1.73923e-03
       H -4.32405e-04  5.23512e-03  4.14283e-03
       O  6.74933e-04  5.68528e-04  8.41749e-04
       H -1.83031e-03  6.86344e-05 -4.17612e-03
       H -5.01699e-03 -2.57267e-03 -2.92138e-03
       O  1.13644e-03  1.72343e-04  2.49188e-04
       H  2.27183e-03 -7.81163e-06  2.49865e-03
       H  2.54712e-03 -1.94646e-03 -1.87661e-03
       O -2.37092e-04  7.13961e-04 -1.08009e-03
       H  6.18053e-03  1.20634e-03 -5.74013e-03
       H -4.86477e-03  3.59760e-03  8.04023e-04
       O -2.01323e-04 -3.23896e-04  1.67483e-03
       H  3.50559e-03  2.07878e-05 -3.55745e-03
       H -9.76151e-04 -3.82095e-03  3.84090e-03
       O -4.17311e-04 -7.96389e-04  1.14918e-04
       H  4.31028e-03 -3.91480e-03 -2.14036e-03
       H -1.65812e-03 -6.80768e-04 -4.12079e-03
       O  1.29810e-03  6.92783e-06  1.62903e-04
       H -6.07166e-04  5.57088e-04 -5.61230e-04
       H -2.89350e-03 -7.64544e-04 -3.00209e-03
       O  3.00249e-04  1.14514e-04  1.84633e-05
       H -1.90815e-03 -8.04419e-03  3.87418e-04
       H  2.10021e-03  8.05426e-03  2.26200e-04
       O -3.37999e-04  1.47374e-03 -1.45722e-04
       H -8.68161e-05 -5.02287e-03 -3.18510e-03
       H  4.76322e-04  6.50034e-03 -4.98473e-03
       O -3.72399e-04  8.24066e-04 -8.86644e-04
       H  5.02513e-04 -2.13327e-03 -5.58553e-03
       H  4.86624e-03 -1.19391e-03  1.25822e-03
       O  4.16792e-04  1.68029e-04  3.36404e-04
       H  3.15467e-04 -3.74735e-04  1.17812e-03
       H  2.44307e-03 -2.60046e-03 -9.95499e-05
       O -1.22659e-03  2.75537e-04 -7.83610e-04
       H -8.33262e-04 -5.57899e-04 -4.20513e-04
       H -1.52557e-03  2.71913e-03  2.03198e-03
       O  8.49623e-05 -5.91765e-05 -1.75573e-04
       H  1.55222e-03  3.57906e-03 -9.05205e-04
       H -5.85596e-03  4.83023e-03  2.48015e-03
       O -1.37598e-04  1.37798e-03 -3.31475e-04
       H  1.10910e-03 -3.64475e-03  2.68122e-03
       H -2.22074e-03  1.63885e-04  3.70471e-03
       O -8.07895e-04  2.79175e-04  3.79391e-04
       H  1.89290e-03  7.97190e-04  3.90061e-03
       H  3.77390e-04  1.29502e-03  4.56143e-03
       O  1.01150e-04  9.70651e-04 -1.33092e-03
       H  3.71091e-03  4.07353e-03 -5.55763e-03
       H  4.47838e-03 -9.03744e-05 -7.99130e-04
       O -1.22655e-03  4.33946e-04 -6.32559e-04
       H -2.76153e-04  1.43889e-03  2.69412e-03
       H  2.41975e-03  3.81099e-03 -1.30863e-03
       O -4.79821e-04  1.03902e-04  1.60023e-03
       H  1.83736e-04  3.79842e-03  1.11837e-03
       H  3.04107e-03  3.02076e-03  3.27097e-03
       O  1.35337e-04 -1.91336e-04 -5.30965e-04
       H  1.18423e-03 -1.53282e-03 -1.89733e-03
       H -4.80734e-03  4.77548e-03  2.27251e-03
       O  6.64117e-04  1.18945e-03 -1.74019e-03
       H -2.98137e-03  5.55010e-04 -1.11137e-03
       H -2.00574e-03 -2.18786e-04 -6.94394e-03
       O  8.21587e-04  1.52258e-03 -5.95566e-04
       H -2.97742e-03 -5.58270e-05 -2.72419e-03
       H  8.18621e-03  4.16349e-03 -2.43788e-03
       O -1.67362e-03  9.17856e-04 -4.60958e-04
       H -1.39158e-03 -2.21756e-03  1.59643e-03
       H -2.71154e-03  9.51265e-04 -5.64276e-03
       O -6.38625e-04 -9.15093e-04  3.79089e-04
       H  5.98269e-03 -1.62996e-03  2.77370e-03
       H  7.05522e-04 -2.25459e-03  4.25654e-03
       O  7.02410e-05  3.23110e-04 -7.62759e-04
       H  1.67227e-03 -4.47376e-03  9.89502e-04
       H -1.30760e-03 -1.33641e-03  6.77530e-03
       O -3.98747e-04  1.11692e-03 -1.88042e-03
       H -1.62747e-04 -7.18216e-03 -2.79839e-03
       H -1.96338e-03  1.08570e-03  1.06643e-03
       O  8.26380e-04 -4.07068e-04 -2.88120e-05
       H -4.91278e-03  1.43330e-03  8.09232e-04
       H -3.08946e-03 -3.46460e-03 -1.78855e-03
       O  1.06810e-03 -2.85288e-04 -3.24601e-04
       H -4.76221e-03 -2.19907e-03 -3.65858e-03
       H -2.60981e-06  2.36232e-04  1.76593e-03
       O -3.05633e-04 -3.13837e-04  1.53666e-04
       H -2.13094e-03 -2.97033e-03  2.44591e-04
       H -2.35847e-04 -2.56401e-03 -8.21022e-04
       O -1.47714e-03  4.85109e-04 -6.80798e-05
       H -5.53396e-03  5.26962e-03  2.27477e-03
       H  5.93227e-03 -3.31907e-03 -2.10402e-03
       O -3.94989e-05  4.39652e-04 -1.25696e-03
       H  2.18539e-03  1.07695e-03  5.05624e-03
       H  2.21804e-03 -4.10322e-03 -3.55259e-03
       O -4.47809e-04  4.92035e-04  2.95843e-04
       H -4.08906e-03  2.55955e-03 -1.27520e-03
       H -1.16839e-03 -3.40050e-03 -3.14047e-03
       O -1.56562e-03 -3.42770e-04  3.88180e-04
       H  4.30844e-03 -8.54424e-04  3.44095e-03
       H -3.22398e-03  1.55934e-03 -2.51713e-03
       O  7.04828e-05 -5.89278e-04  1.25320e-04
       H  4.36684e-03 -4.54902e-03 -7.06297e-03
       H -3.11004e-03  1.96571e-03  6.66070e-03
       O -5.23968e-05  1.16223e-03 -3.34316e-04
       H -3.91563e-03 -3.16058e-03  4.05246e-03
       H  9.68842e-03 -7.91860e-03 -1.08942e-03
       O -9.74262e-04  1.31911e-03  1.20586e-05
       H -2.90630e-03 -1.70339e-03 -5.23406e-03
       H  2.70893e-03 -9.59964e-04 -1.23873e-03
       O -7.51701e-04  7.71888e-04  3.16965e-04
       H -9.10320e-04  1.53476e-03  2.06042e-04
       H -4.53670e-03 -4.50615e-03  4.91731e-04
       O -1.57085e-03  1.83227e-04 -9.94242e-04
       H  7.04307e-04 -4.98871e-03 -2.36165e-03
       H  3.90345e-03  2.02391e-03 -6.94001e-04
       O -7.66881e-04  1.29575e-04 -5.12846e-04
       H  3.76553e-03 -7.32128e-03  8.47322e-04
       H -3.02364e-03 -1.61619e-03 -3.44956e-03
       O  1.30332e-03 -9.36148e-04 -3.35047e-04
       H -1.19538e-03 -3.08259e-03  1.74596e-03
       H  4.08290e-04  2.46099e-03  4.07581e-04
       O  1.20077e-03 -3.08538e-04  1.24694e-03
       H  1.17119e-03 -2.88142e-03 -1.64351e-03
       H -1.81495e-03 -1.03154e-03 -7.74554e-04
       O -5.66773e-04  5.07134e-06  1.66679e-03
       H -8.41602e-04  2.69507e-04  3.47082e-03
       H  1.42247e-03 -2.66135e-03 -1.23999e-04
       O  8.99582e-04  4.38044e-04  5.14991e-04
       H  3.95382e-03 -8.78117e-04 -7.84758e-03
       H -5.54004e-03 -3.81287e-03 -7.29603e-04
       O -6.88019e-04 -3.74610e-04 -1.57371e-03
       H  2.07771e-03 -1.74988e-03  2.96052e-03
       H -4.05769e-03  3.38048e-04 -2.92586e-03
       O -8.24853e-04 -2.62119e-04  1.56727e-05
       H  2.92418e-03 -3.11736e-03 -2.67307e-03
       H  1.69361e-03  5.01085e-05 -6.36764e-04
       O -9.71864e-05 -9.08743e-04 -8.48418e-04
       H -5.61514e-03  7.48832e-04 -1.26245e-03
       H  4.62350e-03  8.21795e-04  7.08765e-03
       O  1.03893e-03 -4.97062e-05 -9.39758e-05
       H  5.08940e-03  6.05990e-03  4.84751e-04
       H  1.06390e-03 -4.43769e-03 -7.31771e-04
       O  9.90127e-04  5.65669e-04 -3.58820e-04
       H  3.83457e-03  3.76669e-03 -3.14329e-03
       H -2.47248e-03  4.39529e-03 -1.27102e-03
       O  1.02119e-03 -3.79999e-04 -1.06387e-03
       H  2.66257e-03 -7.30410e-04  1.19023e-03
       H  1.58642e-03  1.33662e-03 -3.07430e-04
       O -9.14534e-04  5.92078e-04 -1.12166e-03
       H -1.90953e-03  2.50733e-03  7.00075e-03
       H -2.56325e-03 -8.84036e-03  5.56597e-03
       O -3.86356e-04  6.49287e-05  7.37597e-04
       H  5.55537e-04  2.13342e-03 -1.38842e-03
       H  1.89508e-03  3.75617e-03 -2.66235e-03
       O -3.45125e-04 -1.09124e-03  1.27634e-03
       H -4.16411e-03  3.43533e-03 -6.78632e-04
       H  4.55448e-03 -8.78138e-04 -2.58561e-04
       O  6.21004e-04  6.22767e-04 -4.18373e-04
       H -4.30764e-03 -8.38803e-04 -2.23528e-03
       H -2.13812e-03  3.24579e-03  1.07053e-03
       O  5.06330e-04  8.64581e-04  7.41416e-04
       H  2.05930e-03  4.42276e-03  2.68585e-03
       H -2.56687e-03  1.85226e-03 -1.69909e-03
       O -8.07633e-04  6.66567e-04  4.79990e-04
       H -1.96761e-03  2.62177e-03  5.67158e-04
       H  1.47328e-03  2.33993e-03  3.96031e-03
       O -1.71478e-03  9.30251e-06  9.42764e-05
       H -7.30068e-03 -4.02478e-03  8.60564e-03
       H  2.22486e-04 -9.81435e-03  8.73367e-04
       O -4.56100e-04  2.82516e-04 -1.58243e-03
       H -5.97254e-03  8.72573e-04 -2.50674e-03
       H  2.77487e-03  2.33339e-03 -4.92233e-03
       O  2.60921e-04  1.08743e-03  6.09636e-04
       H  4.67187e-03  7.07436e-03  2.38373e-03
       H  1.36204e-03 -1.96956e-03  2.88654e-03
       O -3.30746e-04 -3.26786e-04 -1.15950e-03
       H  8.66889e-03 -3.21441e-03  4.04387e-03
       H  4.24573e-04  1.43755e-03 -1.40612e-03
       O -1.59993e-04 -7.57165e-04  1.26339e-03
       H -2.37898e-03 -1.37001e-03  1.03187e-03
       H  2.11574e-03 -3.97649e-03  5.93977e-04
       O  3.06813e-04 -1.29206e-03 -3.69082e-04
       H -4.76030e-03  3.35199e-03  3.98237e-04
       H  4.45684e-03 -9.15573e-04 -2.60613e-03
       O -6.03838e-04 -1.25343e-03 -2.29802e-04
       H  3.30812e-03  1.15782e-03  5.57916e-03
       H -4.66517e-03  1.59667e-03 -2.96368e-03
       O -4.94313e-04  1.10073e-04 -8.97956e-04
       H  1.31529e-03 -1.82329e-03 -3.99739e-04
       H -5.12540e-03  1.14753e-03  2.59119e-03
192
# CELL(abcABC):   16.99620    29.43815    27.67315    90.00000    90.00000    90.00000  Step:          20  Bead:       9 velocities{atomic_unit}  cell{atomic_unit}
       O -2.46766e-04 -1.11384e-03  2.53815e-04
       H -2.14174e-03  6.11008e-03  3.61358e-03
       H -7.87979e-04 -3.25115e-03 -1.47718e-03
       O  6.13945e-04  7.77806e-04  2.51374e-04
       H -2.63901e-03  2.35164e-03  4.88357e-03
       H -3.05633e-03 -3.50564e-03 -7.00342e-03
       O -1.20177e-03  6.80572e-04 -1.27503e-03
       H  5.15529e-04  7.76171e-04 -8.81241e-04
       H  4.93908e-03 -4.81654e-03 -3.40337e-03
       O  2.39798e-04  1.29419e-03  3.07926e-04
       H  6.02187e-04 -1.44310e-03  2.25223e-03
       H -1.36927e-03  4.73675e-03  3.97543e-03
       O  1.10140e-03 -1.07477e-03 -9.32257e-04
       H -6.14907e-04 -3.42461e-03  1.94441e-03
       H -1.37499e-03 -1.61664e-03 -3.70387e-03
       O  1.12059e-03 -8.54520e-04  1.05864e-03
       H  2.42023e-04 -1.63303e-03  2.49032e-03
       H  1.35276e-03 -1.99429e-03  5.68871e-03
       O  1.19935e-03  5.34532e-04  6.12147e-04
       H -2.89277e-03  5.72827e-03 -2.35630e-03
       H -2.31108e-03  1.33909e-03  3.02819e-03
       O -1.13560e-04  5.02678e-05 -8.19648e-04
       H  2.03534e-03  3.88475e-03 -1.90526e-03
       H -1.78754e-03  3.58896e-03 -3.97496e-03
       O -6.74442e-04  8.65624e-06  1.08333e-03
       H  2.92653e-03 -1.84823e-03 -1.43657e-03
       H  7.67698e-03  6.71672e-04 -1.03000e-03
       O  9.69637e-04 -1.37250e-03  1.02962e-03
       H -2.38889e-03  6.48092e-03  1.84140e-03
       H -1.84497e-03 -6.53631e-03  3.18121e-03
       O  1.10629e-03 -1.06794e-03 -1.49634e-04
       H -3.93476e-03  2.58306e-03 -9.81881e-03
       H  5.34280e-04  3.67253e-03 -8.07968e-03
       O  1.12024e-03  1.45986e-03 -8.18213e-04
       H -4.04503e-04 -2.63364e-03  5.82768e-03
       H  7.03964e-03 -4.99803e-03 -7.58879e-05
       O -7.05381e-04 -2.07910e-04  1.65872e-03
       H -2.68064e-03  1.57271e-03  1.27798e-03
       H  7.22678e-03  5.36222e-03  1.16328e-02
       O  5.22635e-04  2.37275e-04  1.11767e-03
       H -6.10380e-03 -2.26242e-03  2.58950e-03
       H  1.61765e-03  3.96445e-03  7.07597e-03
       O -1.40774e-04  2.71512e-04  4.27516e-04
       H -4.32948e-03 -2.24806e-03  2.78241e-03
       H  9.61339e-05  4.55684e-03  2.68661e-03
       O  5.35073e-05  1.00801e-03  2.42914e-04
       H  1.65484e-03  3.97337e-04 -1.67545e-03
       H -9.05814e-04 -3.04312e-03  5.58412e-04
       O  6.12842e-04 -4.00402e-04 -5.19269e-04
       H -4.01851e-04 -5.42877e-04  4.09236e-03
       H -9.25544e-04  1.84946e-03 -7.62055e-04
       O  6.00610e-04  2.69109e-04 -3.36161e-04
       H -4.95021e-03 -6.42841e-03 -4.59684e-04
       H  2.55530e-04 -3.96961e-03 -3.85721e-03
       O  3.77676e-04 -1.57427e-03 -4.10853e-04
       H -3.12010e-04 -2.94397e-03 -5.66280e-04
       H -1.26773e-03 -5.12854e-03  2.92327e-03
       O -1.49673e-03  1.43750e-04  6.96954e-04
       H  3.87363e-03 -3.24664e-03  5.19948e-03
       H  1.63896e-03 -3.24159e-03 -5.29044e-03
       O -3.04326e-04  1.00943e-03 -4.43938e-04
       H -7.80719e-03 -3.35240e-03  1.98489e-03
       H  3.70441e-03 -5.95248e-03  2.99052e-03
       O  3.00654e-04 -5.98976e-04  6.47026e-04
       H  5.51311e-03 -3.17707e-03  5.00231e-04
       H -1.05304e-02  6.58129e-04  5.55822e-03
       O -5.25800e-04  5.95042e-04 -1.50840e-03
       H  6.80653e-03 -2.60272e-03  4.79452e-04
       H  6.16565e-03 -1.77627e-03  2.34389e-03
       O -3.18793e-04 -2.51872e-04 -1.02887e-03
       H -1.07819e-03 -4.01501e-03  3.10027e-03
       H -2.42808e-03  1.88410e-03 -4.85414e-03
       O -8.68952e-04  1.51890e-04 -3.51340e-04
       H -1.89755e-04  5.50527e-04 -3.87180e-03
       H -7.78950e-04 -2.36301e-03  3.88590e-03
       O  2.36453e-03  7.18760e-04 -4.79289e-04
       H -2.44306e-03 -7.42106e-04 -5.47278e-03
       H -2.52868e-04 -6.27832e-03  3.63371e-03
       O  8.13130e-04 -1.92783e-03  6.11459e-04
       H -3.03740e-03 -1.92861e-03 -3.51894e-03
       H  1.95802e-04 -6.79207e-03 -2.38365e-03
       O -2.09141e-04 -1.01066e-03 -1.03260e-03
       H -2.99326e-03  5.05558e-03  6.72647e-04
       H -6.28474e-05 -4.04860e-03 -3.19489e-03
       O -1.41411e-03 -7.72517e-04  2.83883e-04
       H -4.94898e-03  4.54907e-03  5.40179e-04
       H -4.66683e-03  6.27283e-03 -5.05554e-04
       O  2.78562e-04 -7.91872e-05  6.76777e-04
       H -3.54926e-03 -1.01934e-03 -1.51094e-03
       H -3.16131e-03 -3.27896e-03 -4.74137e-03
       O  4.39161e-04 -7.97464e-04 -2.48520e-04
       H -9.59812e-04 -2.06468e-04  1.08829e-03
       H -6.96199e-05  1.60085e-03  1.01756e-03
       O  3.70108e-04  5.82515e-04 -1.37359e-04
       H  6.55097e-05 -3.71571e-04 -4.24309e-03
       H  1.87733e-03  2.68583e-03  4.67576e-03
       O -5.37732e-07  1.10165e-03  2.67825e-04
       H -1.44985e-03 -1.52833e-03  1.25605e-03
       H  3.10167e-03  5.20450e-03 -1.73756e-03
       O  2.57472e-03  1.83268e-03  6.92449e-04
       H -3.22405e-03  5.50157e-03  2.42771e-04
       H -4.67644e-03 -2.13139e-03  4.95343e-03
       O -1.14890e-04 -3.46876e-04  6.65818e-05
       H  6.51205e-05  3.00722e-03  1.30960e-03
       H  8.49791e-05 -5.83621e-03 -1.03206e-03
       O  1.15229e-03  8.05750e-05 -7.10909e-04
       H  2.39097e-03 -1.37882e-03  2.34306e-03
       H -5.07792e-03  2.54157e-03  6.65922e-03
       O -7.73499e-04  1.07611e-03  1.13038e-03
       H -1.06843e-05  2.03055e-03  1.86675e-03
       H  2.11354e-04  1.49500e-03 -2.28097e-03
       O -1.47099e-03  7.94516e-04 -1.92268e-03
       H -6.65150e-04  1.70787e-04  7.05267e-05
       H -1.33225e-03  9.48903e-04 -3.12894e-03
       O  7.75652e-04 -1.92889e-03 -1.29965e-04
       H -1.54372e-03 -8.64155e-04 -2.92480e-03
       H -1.70441e-04 -2.70426e-03  1.36180e-03
       O  3.41529e-04  4.45110e-04  3.51993e-04
       H  2.90751e-03  3.79864e-03  7.67320e-03
       H  1.53450e-03 -1.23201e-03 -1.31602e-05
       O -6.61741e-04 -1.23330e-04  5.69997e-05
       H  3.46725e-03 -5.19599e-03 -4.63734e-03
       H  3.38589e-04 -1.85402e-03 -3.01103e-03
       O -9.74656e-04  3.26249e-04 -2.53116e-05
       H -9.32269e-05 -1.94278e-04  6.72115e-03
       H -3.53676e-04  1.43935e-03  5.69146e-03
       O  1.41153e-03  9.08963e-04 -6.22077e-04
       H -1.23040e-03 -2.81427e-03  1.59781e-03
       H -7.25701e-03  6.20277e-05  2.84916e-04
       O  1.96219e-03  1.48064e-04 -7.24777e-05
       H -1.20724e-03 -3.77368e-03 -1.22356e-03
       H -9.80455e-04  2.24516e-03 -5.27080e-04
       O  9.09578e-04 -8.39401e-04 -3.92867e-04
       H  8.44582e-04  6.56161e-03 -7.38571e-04
       H  8.51765e-04 -3.18077e-03  3.72040e-03
       O -2.79269e-04  3.87842e-04  8.57363e-04
       H -3.45621e-03  3.37789e-04 -4.91340e-04
       H  9.07941e-03 -3.81806e-03 -2.75496e-03
       O  3.59479e-05  1.79089e-04  3.40884e-04
       H -5.47790e-03  3.65794e-03 -1.70916e-03
       H  1.03845e-04  1.48722e-04 -3.70818e-04
       O  5.05643e-04 -9.26086e-04  4.22320e-04
       H -1.95400e-03 -2.63741e-03  5.92035e-03
       H  3.12118e-03  1.50377e-03  3.23546e-03
       O -1.39508e-03  4.74311e-04  5.51278e-04
       H -2.11940e-03 -1.38330e-03 -1.06244e-03
       H -9.09533e-04  2.44753e-03  2.79688e-03
       O -1.72806e-04 -7.51518e-04  3.81018e-04
       H  5.49479e-03  5.72983e-03 -2.28314e-03
       H  3.61228e-03 -1.85656e-03  2.64455e-03
       O -4.88777e-05  5.60158e-04 -1.45812e-03
       H  1.32645e-03 -2.05872e-03  1.43147e-03
       H  2.23515e-03  1.05115e-03  2.25788e-03
       O -5.42888e-04 -1.16237e-03  1.15400e-04
       H  4.60464e-04  4.44268e-04  4.88988e-03
       H -3.32882e-03 -5.49032e-03 -1.80110e-03
       O  2.28730e-04 -9.35554e-04  2.35932e-04
       H  3.15968e-03 -3.69296e-03  1.14730e-03
       H -9.04413e-04 -2.94291e-03  1.09368e-03
       O -2.30676e-04 -8.90336e-04  1.25971e-03
       H -2.77206e-03  5.48151e-03  5.15397e-03
       H  6.98013e-03  1.44292e-04  1.09354e-04
       O  7.97064e-04  1.42511e-03  6.45774e-04
       H -1.31065e-03 -1.06026e-03  6.95968e-04
       H -1.54354e-03  3.13868e-03  5.67984e-03
       O  1.05546e-03 -1.19805e-04  1.13652e-04
       H -5.73177e-03  9.87323e-03  4.41271e-03
       H  4.52464e-03 -2.01329e-03 -1.14727e-03
       O  4.15174e-05  7.89688e-04 -2.01280e-03
       H  5.56978e-03 -3.14370e-03  1.69321e-04
       H  2.54478e-03  1.41885e-03 -1.93238e-03
       O -1.44462e-03  1.46328e-03 -4.53539e-04
       H  7.62045e-04 -1.48193e-03  3.90902e-04
       H  1.01706e-03  1.23333e-03 -6.58906e-04
       O  1.09648e-03  1.07796e-03 -1.03219e-04
       H -6.96946e-03 -2.36446e-03 -8.42841e-04
       H  3.87835e-03 -4.88640e-03 -1.17484e-03
       O  1.46178e-04  6.27152e-04 -9.21763e-04
       H -4.30971e-04 -1.53976e-03 -6.35627e-03
       H  5.32656e-03  2.78858e-03  2.63188e-03
       O  3.77175e-04 -1.43618e-03  4.65636e-04
       H -1.39232e-03 -2.08538e-03  2.34226e-03
       H -2.09748e-03 -1.89438e-03 -1.23805e-03
       O -8.39908e-04 -5.39633e-05  8.56744e-04
       H -4.43519e-04 -1.11038e-03  2.17544e-03
       H  1.54243e-03  6.51690e-03  2.26396e-03
       O  6.16695e-04 -6.74996e-04 -2.31305e-03
       H -3.66480e-04  2.94718e-03 -1.02752e-03
       H  1.16004e-03 -1.03895e-03 -9.43931e-04
       O  1.19286e-03 -1.31380e-03  3.46123e-04
       H -1.22695e-03 -1.77182e-03  5.01346e-03
       H -2.01573e-03 -7.03722e-04 -2.38398e-03
192
# CELL(abcABC):   16.99620    29.43815    27.67315    90.00000    90.00000    90.00000  Step:          30  Bead:       9 velocities{atomic_unit}  cell{atomic_unit}
       O  1.21960e-03 -1.74761e-03  1.67345e-03
       H  2.82168e-03  7.85621e-04 -2.66666e-03
       H -9.58355e-04 -3.70544e-05 -1.64246e-03
       O  2.06023e-04 -1.07711e-03  8.68969e-04
       H  1.31776e-03  1.50688e-03  1.89210e-03
       H  3.53319e-03  3.03824e-03  1.72283e-03
       O  7.16059e-04 -6.36992e-04 -1.59485e-03
       H  1.04533e-03  4.19342e-04  1.82596e-03
       H  5.88276e-05 -3.19600e-03 -1.62459e-03
       O -3.27086e-03  2.22282e-04  6.56094e-05
       H  3.54417e-03 -3.94101e-03 -3.89788e-03
       H -7.11588e-03  1.75560e-03  4.80618e-03
       O -1.12842e-06 -4.22436e-04  5.49164e-04
       H  4.86035e-03  1.44858e-03 -1.30405e-04
       H  1.33703e-03 -3.15626e-03 -7.75005e-04
       O  1.04691e-04  8.18412e-05 -8.22952e-04
       H -6.96205e-03  1.40226e-03  7.54007e-04
       H  2.03807e-03 -2.25223e-03  1.22262e-04
       O -2.45036e-04 -1.22698e-03  1.10516e-04
       H  2.46167e-03 -1.26119e-03 -2.21678e-04
       H  1.15815e-03  1.90167e-03  2.07817e-04
       O -9.37713e-04  4.14602e-04  1.00185e-03
       H  2.15742e-03  3.66497e-03  2.02421e-03
       H -4.06245e-03 -4.37566e-04 -3.13012e-04
       O  7.24698e-04  2.32534e-03  2.64496e-04
       H  2.94397e-03 -5.13786e-03  9.92740e-04
       H  6.83624e-03  1.16506e-03  1.24736e-03
       O -4.57938e-04 -3.99943e-04 -8.61541e-06
       H  1.60865e-04 -7.23071e-03  3.36612e-03
       H -2.28397e-03 -3.14801e-03  4.58646e-03
       O  2.25374e-04  2.53300e-04 -7.47560e-04
       H -7.31051e-03  3.13685e-03  4.84570e-03
       H -1.65142e-03 -5.84453e-04  8.77794e-04
       O  4.17548e-04  5.60489e-04  3.10986e-04
       H -4.92870e-03 -9.74965e-04  3.49569e-03