192
# CELL(abcABC):   16.99620    29.43815    27.67315    90.00000    90.00000    90.00000  Step:           0  Bead:      30 positions{atomic_unit}  cell{atomic_unit}
       O -8.21943e+00 -9.93714e+00 -1.31733e+01
       H  7.30975e+00 -1.09659e+01 -1.36333e+01
       H -6.70309e+00 -1.09427e+01 -1.35003e+01
       O -3.97045e+00 -2.57760e+00 -1.31733e+01
       H -5.43740e+00 -3.60640e+00 -1.36335e+01
       H -2.45410e+00 -3.58307e+00 -1.35002e+01
       O -3.95479e+00 -1.25494e+01 -7.82537e-01
       H -3.95303e+00 -1.43463e+01 -2.27998e-01
       H -4.14654e+00 -1.25640e+01 -2.59980e+00
       O -8.20381e+00 -5.18980e+00 -7.82573e-01
       H -8.20206e+00 -6.98662e+00 -2.28079e-01
       H -8.39554e+00 -5.20430e+00 -2.59985e+00
       O -4.52774e+00 -1.21415e+01 -6.25501e+00
       H -6.04401e+00 -1.11359e+01 -6.58198e+00
       H -3.06070e+00 -1.11128e+01 -6.71509e+00
       O  8.21948e+00 -4.78197e+00 -6.25503e+00
       H  6.70316e+00 -3.77646e+00 -6.58191e+00
       H -7.30970e+00 -3.75321e+00 -6.71514e+00
       O  8.20373e+00 -9.52922e+00 -7.70081e+00
       H  8.39566e+00 -9.51468e+00 -9.51806e+00
       H  8.20220e+00 -7.73240e+00 -7.14624e+00
       O -4.54345e+00 -2.16975e+00 -7.70084e+00
       H -4.35162e+00 -2.15526e+00 -9.51812e+00
       H -4.54503e+00 -3.72917e-01 -7.14634e+00
       O -8.21943e+00 -9.93697e+00  6.63195e-01
       H  7.30977e+00 -1.09657e+01  2.03202e-01
       H -6.70308e+00 -1.09425e+01  3.36227e-01
       O -3.97044e+00 -2.57760e+00  6.63173e-01
       H -5.43747e+00 -3.60635e+00  2.03069e-01
       H -2.45410e+00 -3.58312e+00  3.36346e-01
       O -3.95472e+00 -1.25494e+01  1.30540e+01
       H -3.95309e+00 -1.43462e+01  1.36086e+01
       H -4.14653e+00 -1.25640e+01  1.12368e+01
       O -8.20380e+00 -5.18990e+00  1.30541e+01
       H -8.20202e+00 -6.98672e+00  1.36085e+01
       H -8.39553e+00 -5.20434e+00  1.12368e+01
       O -4.52771e+00 -1.21415e+01  7.58159e+00
       H -6.04402e+00 -1.11360e+01  7.25460e+00
       H -3.06070e+00 -1.11128e+01  7.12152e+00
       O  8.21944e+00 -4.78191e+00  7.58149e+00
       H  6.70312e+00 -3.77633e+00  7.25453e+00
       H -7.30974e+00 -3.75322e+00  7.12139e+00
       O  8.20378e+00 -9.52926e+00  6.13582e+00
       H  8.39564e+00 -9.51474e+00  4.31856e+00
       H  8.20221e+00 -7.73246e+00  6.69037e+00
       O -4.54344e+00 -2.16971e+00  6.13568e+00
       H -4.35161e+00 -2.15522e+00  4.31840e+00
       H -4.54506e+00 -3.72896e-01  6.69017e+00
       O -8.21947e+00  4.78210e+00 -1.31734e+01
       H  7.30974e+00  3.75335e+00 -1.36334e+01
       H -6.70314e+00  3.77651e+00 -1.35002e+01
       O -3.97046e+00  1.21415e+01 -1.31733e+01
       H -5.43745e+00  1.11127e+01 -1.36334e+01
       H -2.45410e+00  1.11360e+01 -1.35002e+01
       O -3.95479e+00  2.16971e+00 -7.82462e-01
       H -3.95303e+00  3.72884e-01 -2.27933e-01
       H -4.14646e+00  2.15509e+00 -2.59975e+00
       O -8.20376e+00  9.52923e+00 -7.82499e-01
       H -8.20200e+00  7.73238e+00 -2.27998e-01
       H -8.39546e+00  9.51472e+00 -2.59977e+00
       O -4.52774e+00  2.57749e+00 -6.25512e+00
       H -6.04400e+00  3.58312e+00 -6.58197e+00
       H -3.06066e+00  3.60618e+00 -6.71512e+00
       O  8.21949e+00  9.93715e+00 -6.25509e+00
       H  6.70318e+00  1.09426e+01 -6.58202e+00
       H -7.30970e+00  1.09659e+01 -6.71526e+00
       O  8.20366e+00  5.18988e+00 -7.70077e+00
       H  8.39552e+00  5.20437e+00 -9.51803e+00
       H  8.20217e+00  6.98669e+00 -7.14625e+00
       O -4.54337e+00  1.25494e+01 -7.70088e+00
       H -4.35159e+00  1.25639e+01 -9.51817e+00
       H -4.54500e+00  1.43462e+01 -7.14634e+00
       O -8.21952e+00  4.78190e+00  6.63226e-01
       H  7.30971e+00  3.75313e+00  2.03107e-01
       H -6.70317e+00  3.77635e+00  3.36440e-01
       O -3.97040e+00  1.21415e+01  6.63326e-01
       H -5.43738e+00  1.11127e+01  2.03185e-01
       H -2.45407e+00  1.11360e+01  3.36426e-01
       O -3.95476e+00  2.16964e+00  1.30541e+01
       H -3.95303e+00  3.72832e-01  1.36087e+01
       H -4.14651e+00  2.15510e+00  1.12369e+01
       O -8.20373e+00  9.52937e+00  1.30540e+01
       H -8.20206e+00  7.73252e+00  1.36085e+01
       H -8.39548e+00  9.51483e+00  1.12368e+01
       O -4.52770e+00  2.57756e+00  7.58140e+00
       H -6.04399e+00  3.58315e+00  7.25450e+00
       H -3.06066e+00  3.60630e+00  7.12138e+00
       O  8.21951e+00  9.93714e+00  7.58157e+00
       H  6.70319e+00  1.09427e+01  7.25463e+00
       H -7.30968e+00  1.09658e+01  7.12140e+00
       O  8.20369e+00  5.18993e+00  6.13578e+00
       H  8.39547e+00  5.20441e+00  4.31850e+00
       H  8.20212e+00  6.98674e+00  6.69030e+00
       O -4.54348e+00  1.25494e+01  6.13570e+00
       H -4.35158e+00  1.25639e+01  4.31845e+00
       H -4.54503e+00  1.43462e+01  6.69025e+00
       O  2.78573e-01 -9.93717e+00 -1.31734e+01
       H -1.18842e+00 -1.09659e+01 -1.36336e+01
       H  1.79493e+00 -1.09427e+01 -1.35002e+01
       O  4.52772e+00 -2.57751e+00 -1.31733e+01
       H  3.06068e+00 -3.60627e+00 -1.36334e+01
       H  6.04403e+00 -3.58305e+00 -1.35003e+01
       O  4.54334e+00 -1.25494e+01 -7.82465e-01
       H  4.54513e+00 -1.43463e+01 -2.27989e-01
       H  4.35168e+00 -1.25640e+01 -2.59974e+00
       O  2.94294e-01 -5.18980e+00 -7.82487e-01
       H  2.96032e-01 -6.98663e+00 -2.28053e-01
       H  1.02602e-01 -5.20427e+00 -2.59977e+00
       O  3.97042e+00 -1.21415e+01 -6.25517e+00
       H  2.45414e+00 -1.11359e+01 -6.58198e+00
       H  5.43747e+00 -1.11128e+01 -6.71526e+00
       O -2.78672e-01 -4.78194e+00 -6.25508e+00
       H -1.79498e+00 -3.77636e+00 -6.58199e+00
       H  1.18837e+00 -3.75320e+00 -6.71514e+00
       O -2.94511e-01 -9.52920e+00 -7.70081e+00
       H -1.02600e-01 -9.51466e+00 -9.51806e+00
       H -2.96005e-01 -7.73240e+00 -7.14625e+00
       O  3.95462e+00 -2.16972e+00 -7.70080e+00
       H  4.14654e+00 -2.15521e+00 -9.51804e+00
       H  3.95318e+00 -3.72879e-01 -7.14628e+00
       O  2.78541e-01 -9.93701e+00  6.63104e-01
       H -1.18842e+00 -1.09658e+01  2.03011e-01
       H  1.79493e+00 -1.09425e+01  3.36333e-01
       O  4.52773e+00 -2.57757e+00  6.63187e-01
       H  3.06068e+00 -3.60633e+00  2.03125e-01
       H  6.04402e+00 -3.58308e+00  3.36357e-01
       O  4.54332e+00 -1.25494e+01  1.30541e+01
       H  4.54518e+00 -1.43462e+01  1.36086e+01
       H  4.35169e+00 -1.25640e+01  1.12368e+01
       O  2.94281e-01 -5.18991e+00  1.30541e+01
       H  2.95995e-01 -6.98675e+00  1.36085e+01
       H  1.02570e-01 -5.20435e+00  1.12368e+01
       O  3.97044e+00 -1.21415e+01  7.58145e+00
       H  2.45413e+00 -1.11360e+01  7.25466e+00
       H  5.43745e+00 -1.11128e+01  7.12135e+00
       O -2.78601e-01 -4.78191e+00  7.58148e+00
       H -1.79495e+00 -3.77634e+00  7.25458e+00
       H  1.18839e+00 -3.75323e+00  7.12138e+00
       O -2.94501e-01 -9.52922e+00  6.13582e+00
       H -1.02637e-01 -9.51466e+00  4.31854e+00
       H -2.96013e-01 -7.73241e+00  6.69035e+00
       O  3.95462e+00 -2.16967e+00  6.13570e+00
       H  4.14656e+00 -2.15516e+00  4.31844e+00
       H  3.95315e+00 -3.72836e-01  6.69024e+00
       O  2.78636e-01  4.78206e+00 -1.31735e+01
       H -1.18832e+00  3.75329e+00 -1.36335e+01
       H  1.79499e+00  3.77651e+00 -1.35003e+01
       O  4.52773e+00  1.21415e+01 -1.31733e+01
       H  3.06066e+00  1.11127e+01 -1.36334e+01
       H  6.04403e+00  1.11360e+01 -1.35003e+01
       O  4.54332e+00  2.16970e+00 -7.82499e-01
       H  4.54510e+00  3.72872e-01 -2.27973e-01
       H  4.35161e+00  2.15513e+00 -2.59979e+00
       O  2.94188e-01  9.52923e+00 -7.82517e-01
       H  2.95976e-01  7.73239e+00 -2.28033e-01
       H  1.02486e-01  9.51470e+00 -2.59980e+00
       O  3.97041e+00  2.57752e+00 -6.25508e+00
       H  2.45414e+00  3.58307e+00 -6.58188e+00
       H  5.43747e+00  3.60626e+00 -6.71516e+00
       O -2.78677e-01  9.93714e+00 -6.25506e+00
       H -1.79497e+00  1.09427e+01 -6.58203e+00
       H  1.18838e+00  1.09659e+01 -6.71517e+00
       O -2.94451e-01  5.18990e+00 -7.70074e+00
       H -1.02475e-01  5.20442e+00 -9.51799e+00
       H -2.95971e-01  6.98671e+00 -7.14623e+00
       O  3.95453e+00  1.25494e+01 -7.70088e+00
       H  4.14650e+00  1.25638e+01 -9.51813e+00
       H  3.95314e+00  1.43462e+01 -7.14638e+00
       O  2.78666e-01  4.78190e+00  6.63181e-01
       H -1.18838e+00  3.75314e+00  2.03219e-01
       H  1.79499e+00  3.77637e+00  3.36305e-01
       O  4.52768e+00  1.21415e+01  6.63233e-01
       H  3.06065e+00  1.11127e+01  2.03130e-01
       H  6.04402e+00  1.11359e+01  3.36318e-01
       O  4.54337e+00  2.16963e+00  1.30541e+01
       H  4.54515e+00  3.72778e-01  1.36085e+01
       H  4.35165e+00  2.15511e+00  1.12368e+01
       O  2.94139e-01  9.52935e+00  1.30540e+01
       H  2.96028e-01  7.73252e+00  1.36085e+01
       H  1.02508e-01  9.51480e+00  1.12368e+01
       O  3.97044e+00  2.57752e+00  7.58146e+00
       H  2.45409e+00  3.58312e+00  7.25468e+00
       H  5.43745e+00  3.60627e+00  7.12136e+00
       O -2.78642e-01  9.93713e+00  7.58156e+00
       H -1.79498e+00  1.09426e+01  7.25459e+00
       H  1.18834e+00  1.09658e+01  7.12145e+00
       O -2.94462e-01  5.18993e+00  6.13575e+00
       H -1.02485e-01  5.20444e+00  4.31854e+00
       H -2.95928e-01  6.98677e+00  6.69031e+00
       O  3.95461e+00  1.25493e+01  6.13580e+00
       H  4.14651e+00  1.25638e+01  4.31854e+00
       H  3.95313e+00  1.43462e+01  6.69028e+00
192
# CELL(abcABC):   16.99620    29.43815    27.67315    90.00000    90.00000    90.00000  Step:          10  Bead:      30 positions{atomic_unit}  cell{atomic_unit}
       O -8.19351e+00 -9.95633e+00 -1.31887e+01
       H  7.50816e+00 -1.07051e+01 -1.35041e+01
       H -6.71835e+00 -1.10135e+01 -1.34982e+01
       O -3.92811e+00 -2.60095e+00 -1.31892e+01
       H -5.46742e+00 -3.67284e+00 -1.36615e+01
       H -2.50210e+00 -3.64957e+00 -1.34584e+01
       O -3.93942e+00 -1.25788e+01 -8.00630e-01
       H -3.94288e+00 -1.43526e+01 -2.70060e-01
       H -4.06278e+00 -1.25312e+01 -2.64623e+00
       O -8.21839e+00 -5.20429e+00 -8.17987e-01
       H -8.12043e+00 -6.84143e+00 -1.96937e-01
       H -8.42040e+00 -5.13061e+00 -2.56525e+00
       O -4.54029e+00 -1.21617e+01 -6.23294e+00
       H -6.12197e+00 -1.10753e+01 -6.52693e+00
       H -3.10474e+00 -1.11986e+01 -6.67472e+00
       O  8.21349e+00 -4.77716e+00 -6.25648e+00
       H  6.80000e+00 -3.67985e+00 -6.55059e+00
       H -7.29625e+00 -3.81518e+00 -6.75513e+00
       O  8.21507e+00 -9.49297e+00 -7.69727e+00
       H  8.26409e+00 -9.43606e+00 -9.56403e+00
       H  8.15319e+00 -7.71803e+00 -7.12862e+00
       O -4.50288e+00 -2.12552e+00 -7.67221e+00
       H -4.26410e+00 -2.31405e+00 -9.50983e+00
       H -4.62769e+00 -4.74242e-01 -7.17334e+00
       O -8.24018e+00 -9.94216e+00  6.49534e-01
       H  7.29417e+00 -1.11999e+01  9.26148e-02
       H -6.77398e+00 -1.09003e+01  3.05073e-01
       O -3.99391e+00 -2.62113e+00  6.72536e-01
       H -5.35728e+00 -3.51059e+00  2.98930e-01
       H -2.55626e+00 -3.67549e+00  3.36405e-01
       O -3.93260e+00 -1.25262e+01  1.30605e+01
       H -4.01684e+00 -1.42024e+01  1.35666e+01
       H -4.27743e+00 -1.24647e+01  1.11769e+01
       O -8.21486e+00 -5.18055e+00  1.30746e+01
       H -8.21016e+00 -7.14499e+00  1.36055e+01
       H -8.42292e+00 -5.28940e+00  1.14441e+01
       O -4.54480e+00 -1.21667e+01  7.55706e+00
       H -5.96795e+00 -1.11523e+01  7.17365e+00
       H -3.02657e+00 -1.11614e+01  7.24901e+00
       O  8.26254e+00 -4.81341e+00  7.58689e+00
       H  6.61809e+00 -3.69149e+00  7.36907e+00
       H -7.16214e+00 -3.79288e+00  7.02459e+00
       O  8.29550e+00 -9.50518e+00  6.11379e+00
       H  8.25897e+00 -9.50084e+00  4.48083e+00
       H  8.01705e+00 -7.63937e+00  6.75031e+00
       O -4.50983e+00 -2.17534e+00  6.08549e+00
       H -4.43224e+00 -2.16377e+00  4.35451e+00
       H -4.63677e+00 -2.69190e-01  6.56768e+00
       O -8.19499e+00  4.78029e+00 -1.31924e+01
       H  7.34326e+00  3.67458e+00 -1.38358e+01
       H -6.69218e+00  3.77756e+00 -1.34771e+01
       O -4.02987e+00  1.21596e+01 -1.32000e+01
       H -5.48061e+00  1.09804e+01 -1.37214e+01
       H -2.36910e+00  1.10755e+01 -1.34595e+01
       O -3.90262e+00  2.18310e+00 -7.95487e-01
       H -3.99903e+00  2.56776e-01 -6.63990e-02
       H -4.08096e+00  1.98814e+00 -2.70893e+00
       O -8.23341e+00  9.51272e+00 -8.11306e-01
       H -7.99567e+00  7.75375e+00 -5.98088e-02
       H -8.30256e+00  9.48101e+00 -2.65179e+00
       O -4.51256e+00  2.58739e+00 -6.25676e+00
       H -6.07626e+00  3.50251e+00 -6.60257e+00
       H -3.04661e+00  3.39884e+00 -6.69696e+00
       O  8.23432e+00  9.91165e+00 -6.23125e+00
       H  6.54294e+00  1.09810e+01 -6.71822e+00
       H -7.24048e+00  1.09330e+01 -6.65707e+00
       O  8.21854e+00  5.19235e+00 -7.72790e+00
       H  8.37918e+00  5.12330e+00 -9.60376e+00
       H  8.15849e+00  7.04296e+00 -7.16337e+00
       O -4.55548e+00  1.25522e+01 -7.69668e+00
       H -4.39638e+00  1.25875e+01 -9.65508e+00
       H -4.47000e+00  1.42438e+01 -7.15590e+00
       O -8.24089e+00  4.73394e+00  6.43766e-01
       H  7.32072e+00  3.74910e+00  1.71489e-01
       H -6.87102e+00  3.68725e+00  1.25220e-01
       O -3.94056e+00  1.21162e+01  6.73705e-01
       H -5.31317e+00  1.12584e+01  2.95635e-01
       H -2.42012e+00  1.10101e+01  3.34577e-01
       O -3.94960e+00  2.17159e+00  1.30380e+01
       H -3.74694e+00  3.90793e-01  1.38246e+01
       H -4.19379e+00  2.11086e+00  1.12987e+01
       O -8.20550e+00  9.53026e+00  1.30616e+01
       H -8.26245e+00  7.75377e+00  1.36505e+01
       H -8.53618e+00  9.52904e+00  1.12622e+01
       O -4.50280e+00  2.60905e+00  7.56504e+00
       H -6.06328e+00  3.58638e+00  7.14351e+00
       H -3.01388e+00  3.55901e+00  7.08969e+00
       O  8.25300e+00  9.96596e+00  7.58988e+00
       H  6.81924e+00  1.11345e+01  7.34344e+00
       H -7.18903e+00  1.09016e+01  7.01286e+00
       O  8.21030e+00  5.17805e+00  6.12127e+00
       H  8.53827e+00  5.22438e+00  4.13957e+00
       H  8.27984e+00  6.85980e+00  6.65288e+00
       O -4.52797e+00  1.25547e+01  6.09783e+00
       H -4.28487e+00  1.26017e+01  4.24139e+00
       H -4.63265e+00  1.43772e+01  6.69546e+00
       O  2.71213e-01 -9.92244e+00 -1.31800e+01
       H -1.23765e+00 -1.10099e+01 -1.35800e+01
       H  1.74703e+00 -1.10091e+01 -1.33612e+01
       O  4.56142e+00 -2.59147e+00 -1.31688e+01
       H  3.03882e+00 -3.64703e+00 -1.35827e+01
       H  6.28198e+00 -3.42926e+00 -1.36368e+01
       O  4.56951e+00 -1.25780e+01 -7.92826e-01
       H  4.60119e+00 -1.44130e+01 -1.74442e-01
       H  4.63646e+00 -1.24936e+01 -2.58039e+00
       O  2.99545e-01 -5.20200e+00 -7.85918e-01
       H  3.48585e-01 -6.96264e+00 -7.65239e-02
       H  3.07378e-03 -5.13305e+00 -2.66312e+00
       O  3.97855e+00 -1.21194e+01 -6.23149e+00
       H  2.34243e+00 -1.10213e+01 -6.52779e+00
       H  5.41014e+00 -1.11568e+01 -6.81459e+00
       O -2.80250e-01 -4.75318e+00 -6.25487e+00
       H -1.64276e+00 -3.64220e+00 -6.59020e+00
       H  1.45920e+00 -3.85276e+00 -6.60296e+00
       O -2.86036e-01 -9.50393e+00 -7.74475e+00
       H -1.35172e-01 -9.57280e+00 -9.46596e+00
       H -2.45889e-01 -7.74445e+00 -7.29677e+00
       O  3.98532e+00 -2.14067e+00 -7.70701e+00
       H  4.05849e+00 -2.11139e+00 -9.49578e+00
       H  3.92305e+00 -4.64777e-01 -7.23165e+00
       O  2.43361e-01 -9.92109e+00  6.45249e-01
       H -1.29963e+00 -1.10361e+01  1.89114e-01
       H  1.81514e+00 -1.08670e+01  3.19493e-01
       O  4.53616e+00 -2.57111e+00  6.55403e-01
       H  3.05211e+00 -3.57978e+00  2.70280e-01
       H  6.12316e+00 -3.73631e+00  3.34170e-01
       O  4.58890e+00 -1.25284e+01  1.31167e+01
       H  4.63382e+00 -1.43531e+01  1.36409e+01
       H  4.30309e+00 -1.27297e+01  1.10571e+01
       O  3.25971e-01 -5.21465e+00  1.30389e+01
       H  5.04486e-01 -7.06364e+00  1.37182e+01
       H  4.26915e-02 -5.07950e+00  1.11708e+01
       O  3.97826e+00 -1.21497e+01  7.57500e+00
       H  2.68428e+00 -1.09936e+01  7.20994e+00
       H  5.41799e+00 -1.11010e+01  7.34410e+00
       O -2.63326e-01 -4.77093e+00  7.53304e+00
       H -1.83234e+00 -3.76802e+00  7.28623e+00
       H  1.22171e+00 -3.76594e+00  6.98833e+00
       O -3.03702e-01 -9.53709e+00  6.10758e+00
       H -3.00368e-01 -9.61622e+00  4.40269e+00
       H -1.93961e-01 -7.70336e+00  6.80535e+00
       O  3.94641e+00 -2.15067e+00  6.11994e+00
       H  4.11779e+00 -2.05587e+00  4.21382e+00
       H  4.04853e+00 -3.54049e-01  6.73477e+00
       O  2.69172e-01  4.79889e+00 -1.32009e+01
       H -1.08798e+00  3.89187e+00 -1.35209e+01
       H  1.72829e+00  3.68540e+00 -1.34091e+01
       O  4.52954e+00  1.21249e+01 -1.31888e+01
       H  3.00036e+00  1.11405e+01 -1.36627e+01
       H  6.08672e+00  1.12586e+01 -1.34744e+01
       O  4.53151e+00  2.13068e+00 -7.88963e-01
       H  4.69726e+00  3.62517e-01 -1.53296e-01
       H  4.35299e+00  2.11807e+00 -2.54691e+00
       O  3.20762e-01  9.54417e+00 -7.69142e-01
       H  3.58798e-01  7.80968e+00 -2.47943e-01
       H  1.03094e-02  9.55403e+00 -2.45158e+00
       O  3.99653e+00  2.57990e+00 -6.26001e+00
       H  2.64016e+00  3.49382e+00 -6.68033e+00
       H  5.42137e+00  3.53215e+00 -6.46062e+00
       O -2.85696e-01  9.92377e+00 -6.21969e+00
       H -1.81337e+00  1.09345e+01 -6.41024e+00
       H  1.23883e+00  1.09338e+01 -6.65731e+00
       O -3.10742e-01  5.19864e+00 -7.66634e+00
       H -1.55568e-01  5.14419e+00 -9.50004e+00
       H -3.60054e-01  7.02132e+00 -7.09140e+00
       O  4.02037e+00  1.25704e+01 -7.68777e+00
       H  4.20764e+00  1.25736e+01 -9.52608e+00
       H  3.89397e+00  1.42246e+01 -7.09566e+00
       O  2.49912e-01  4.78058e+00  6.77106e-01
       H -1.14867e+00  3.73940e+00  1.72840e-01
       H  1.86577e+00  3.78283e+00  2.58568e-01
       O  4.53186e+00  1.21115e+01  6.70030e-01
       H  3.03876e+00  1.10136e+01  2.19840e-01
       H  5.97665e+00  1.09802e+01  5.74571e-01
       O  4.54452e+00  2.25937e+00  1.30561e+01
       H  4.47611e+00  3.05306e-01  1.37589e+01
       H  4.21092e+00  2.20899e+00  1.12329e+01
       O  2.81689e-01  9.51998e+00  1.30269e+01
       H  3.17398e-01  7.76886e+00  1.34809e+01
       H  6.43950e-02  9.37582e+00  1.11724e+01
       O  4.00695e+00  2.56989e+00  7.58640e+00
       H  2.33285e+00  3.60722e+00  7.14464e+00
       H  5.34855e+00  3.60159e+00  7.11369e+00
       O -2.32547e-01  9.95927e+00  7.60161e+00
       H -1.82136e+00  1.10670e+01  7.19314e+00
       H  1.16400e+00  1.09332e+01  7.21181e+00
       O -3.01168e-01  5.21499e+00  6.15043e+00
       H -7.81070e-02  5.22696e+00  4.22070e+00
       H -1.67080e-01  7.05810e+00  6.69451e+00
       O  3.97506e+00  1.26086e+01  6.12535e+00
       H  4.24958e+00  1.25714e+01  4.48279e+00
       H  3.96471e+00  1.42570e+01  6.65114e+00
192
# CELL(abcABC):   16.99620    29.43815    27.67315    90.00000    90.00000    90.00000  Step:          20  Bead:      30 positions{atomic_unit}  cell{atomic_unit}
       O -8.21126e+00 -9.94417e+00 -1.31894e+01
       H  7.45500e+00 -1.07136e+01 -1.33032e+01
       H -6.60837e+00 -1.11536e+01 -1.32778e+01
       O -3.93224e+00 -2.58729e+00 -1.31654e+01
       H -5.55434e+00 -3.83843e+00 -1.35939e+01
       H -2.48631e+00 -3.70252e+00 -1.33298e+01
       O -3.92413e+00 -1.25951e+01 -8.31090e-01
       H -3.92733e+00 -1.42910e+01 -2.24324e-01
       H -4.18462e+00 -1.24993e+01 -2.69797e+00
       O -8.24292e+00 -5.21430e+00 -8.26064e-01
       H -8.13589e+00 -6.91961e+00 -4.01951e-01
       H -8.53266e+00 -5.17545e+00 -2.50991e+00
       O -4.54477e+00 -1.21619e+01 -6.23180e+00
       H -6.05643e+00 -1.09713e+01 -6.66025e+00
       H -3.03260e+00 -1.11993e+01 -6.65195e+00
       O  8.24776e+00 -4.81594e+00 -6.22175e+00
       H  6.85841e+00 -3.65811e+00 -6.43280e+00
       H -7.37400e+00 -3.80895e+00 -6.79111e+00
       O  8.23246e+00 -9.49075e+00 -7.70744e+00
       H  8.33119e+00 -9.36709e+00 -9.43689e+00
       H  8.24493e+00 -7.70136e+00 -7.18042e+00
       O -4.51193e+00 -2.08783e+00 -7.70397e+00
       H -4.19691e+00 -2.29672e+00 -9.40947e+00
       H -4.59892e+00 -5.23309e-01 -7.02121e+00
       O -8.25225e+00 -9.95401e+00  6.78540e-01
       H  7.25159e+00 -1.10769e+01  2.66052e-02
       H -6.66111e+00 -1.10337e+01  4.85118e-01
       O -4.01178e+00 -2.61816e+00  6.80190e-01
       H -5.43782e+00 -3.49183e+00  1.64921e-01
       H -2.61339e+00 -3.68613e+00  4.47411e-01
       O -3.94513e+00 -1.25117e+01  1.30737e+01
       H -4.01017e+00 -1.42859e+01  1.35136e+01
       H -4.33045e+00 -1.25060e+01  1.09828e+01
       O -8.23659e+00 -5.14947e+00  1.30680e+01
       H -8.02112e+00 -7.14605e+00  1.35140e+01
       H -8.63720e+00 -5.16240e+00  1.14255e+01
       O -4.53356e+00 -1.21649e+01  7.57867e+00
       H -5.85614e+00 -1.11548e+01  7.02135e+00
       H -3.11184e+00 -1.11606e+01  7.17109e+00
       O  8.27149e+00 -4.83850e+00  7.56612e+00
       H  6.55728e+00 -3.60790e+00  7.47652e+00
       H -7.21380e+00 -3.83856e+00  6.71203e+00
       O  8.30905e+00 -9.43443e+00  6.09789e+00
       H  8.35268e+00 -9.56910e+00  4.47580e+00
       H  7.76388e+00 -7.42786e+00  6.78347e+00
       O -4.47854e+00 -2.21293e+00  6.08327e+00
       H -4.38910e+00 -2.27064e+00  4.36616e+00
       H -4.79820e+00 -3.89855e-01  6.74579e+00
       O -8.18731e+00  4.78873e+00 -1.31693e+01
       H  7.20643e+00  3.76984e+00 -1.36056e+01
       H -6.79205e+00  3.94045e+00 -1.33882e+01
       O -4.01089e+00  1.21307e+01 -1.31777e+01
       H -5.51231e+00  1.11176e+01 -1.37488e+01
       H -2.45501e+00  1.09032e+01 -1.33411e+01
       O -3.87794e+00  2.17442e+00 -8.13447e-01
       H -4.18716e+00  3.02727e-01 -2.80975e-01
       H -4.17505e+00  2.07463e+00 -2.74661e+00
       O -8.27360e+00  9.53681e+00 -8.24739e-01
       H -7.92358e+00  7.68614e+00 -1.04884e-01
       H -8.33136e+00  9.42416e+00 -2.67983e+00
       O -4.51713e+00  2.61078e+00 -6.25849e+00
       H -6.00471e+00  3.62250e+00 -6.60394e+00
       H -3.05126e+00  3.08321e+00 -6.79489e+00
       O  8.23420e+00  9.93521e+00 -6.23020e+00
       H  6.67593e+00  1.09915e+01 -6.81971e+00
       H -7.25634e+00  1.09185e+01 -6.50750e+00
       O  8.26447e+00  5.19677e+00 -7.69760e+00
       H  8.43478e+00  5.05543e+00 -9.59090e+00
       H  8.11763e+00  7.03343e+00 -7.12115e+00
       O -4.57436e+00  1.25611e+01 -7.68347e+00
       H -4.60018e+00  1.25970e+01 -9.63236e+00
       H -4.46189e+00  1.43091e+01 -7.19693e+00
       O -8.21799e+00  4.76231e+00  6.20416e-01
       H  7.29573e+00  3.71916e+00  2.73062e-01
       H -6.93077e+00  3.69069e+00  8.56217e-02
       O -3.94969e+00  1.21447e+01  6.76635e-01
       H -5.27090e+00  1.11405e+01  3.30851e-01
       H -2.41671e+00  1.10597e+01  4.44977e-01
       O -3.95193e+00  2.19951e+00  1.30355e+01
       H -3.56674e+00  2.47147e-01  1.37647e+01
       H -4.30861e+00  2.07979e+00  1.13182e+01
       O -8.19789e+00  9.53283e+00  1.30636e+01
       H -8.48249e+00  7.73600e+00  1.36011e+01
       H -8.46110e+00  9.47547e+00  1.11435e+01
       O -4.49437e+00  2.63436e+00  7.56740e+00
       H -6.07899e+00  3.53488e+00  7.25194e+00
       H -2.95265e+00  3.44389e+00  7.17309e+00
       O  8.26773e+00  9.99034e+00  7.57342e+00
       H  6.92832e+00  1.12257e+01  7.37941e+00
       H -7.09819e+00  1.08748e+01  6.98703e+00
       O  8.18928e+00  5.16391e+00  6.11920e+00
       H  8.54743e+00  5.09184e+00  4.17427e+00
       H  8.19842e+00  7.09056e+00  6.67910e+00
       O -4.53165e+00  1.25921e+01  6.08049e+00
       H -4.34155e+00  1.27222e+01  4.19495e+00
       H -4.64653e+00  1.42636e+01  6.52393e+00
       O  2.48156e-01 -9.89876e+00 -1.32120e+01
       H -1.07191e+00 -1.08986e+01 -1.35396e+01
       H  1.79007e+00 -1.09914e+01 -1.32703e+01
       O  4.53766e+00 -2.56027e+00 -1.31203e+01
       H  3.15232e+00 -3.69328e+00 -1.36032e+01
       H  6.37174e+00 -3.46159e+00 -1.36121e+01
       O  4.58634e+00 -1.26284e+01 -8.07550e-01
       H  4.52743e+00 -1.44832e+01 -1.23895e-01
       H  4.67468e+00 -1.24090e+01 -2.52070e+00
       O  3.12753e-01 -5.18345e+00 -7.39714e-01
       H  2.53978e-01 -6.91334e+00 -1.64218e-01
       H -1.89553e-01 -5.03569e+00 -2.79965e+00
       O  4.00220e+00 -1.21243e+01 -6.24854e+00
       H  2.23365e+00 -1.11565e+01 -6.56021e+00
       H  5.42877e+00 -1.12760e+01 -6.91030e+00
       O -2.55140e-01 -4.77866e+00 -6.23273e+00
       H -1.77063e+00 -3.71806e+00 -6.77808e+00
       H  1.62231e+00 -4.05162e+00 -6.61289e+00
       O -2.89727e-01 -9.51514e+00 -7.75954e+00
       H -5.74194e-02 -9.63820e+00 -9.42486e+00
       H -2.55644e-01 -7.74592e+00 -7.18106e+00
       O  3.97890e+00 -2.11399e+00 -7.67127e+00
       H  4.15968e+00 -2.07826e+00 -9.55813e+00
       H  4.02986e+00 -4.11553e-01 -7.14886e+00
       O  2.41562e-01 -9.91757e+00  6.38532e-01
       H -1.20959e+00 -1.09900e+01  1.44820e-01
       H  1.78651e+00 -1.09135e+01  3.13788e-01
       O  4.54717e+00 -2.54552e+00  6.80899e-01
       H  3.02715e+00 -3.56043e+00  1.79015e-01
       H  6.02767e+00 -3.75125e+00  4.42069e-01
       O  4.61442e+00 -1.25025e+01  1.31709e+01
       H  4.63642e+00 -1.43143e+01  1.37068e+01
       H  4.33502e+00 -1.25510e+01  1.10822e+01
       O  3.21712e-01 -5.20914e+00  1.30267e+01
       H  6.28670e-01 -7.13843e+00  1.37473e+01
       H  2.09975e-01 -5.12191e+00  1.10691e+01
       O  3.95536e+00 -1.21356e+01  7.57270e+00
       H  2.75129e+00 -1.08934e+01  7.20607e+00
       H  5.18088e+00 -1.11918e+01  7.47075e+00
       O -2.39970e-01 -4.80041e+00  7.49373e+00
       H -1.79414e+00 -3.92146e+00  7.31912e+00
       H  1.25770e+00 -3.81739e+00  7.15363e+00
       O -3.46205e-01 -9.55538e+00  6.13894e+00
       H -4.44639e-01 -9.51338e+00  4.32407e+00
       H -8.56749e-02 -7.77028e+00  6.84794e+00
       O  3.95651e+00 -2.15545e+00  6.10946e+00
       H  4.09923e+00 -2.14920e+00  4.17809e+00
       H  4.36120e+00 -3.32869e-01  6.69888e+00
       O  2.39354e-01  4.78547e+00 -1.31688e+01
       H -1.11527e+00  3.70754e+00 -1.34168e+01
       H  1.68108e+00  3.71216e+00 -1.34573e+01
       O  4.51332e+00  1.21052e+01 -1.32047e+01
       H  3.07248e+00  1.10749e+01 -1.37711e+01
       H  6.09194e+00  1.14277e+01 -1.34972e+01
       O  4.54037e+00  2.14236e+00 -7.64861e-01
       H  4.64865e+00  3.77044e-01 -1.85555e-01
       H  4.27193e+00  1.96264e+00 -2.47056e+00
       O  3.19760e-01  9.53836e+00 -7.49830e-01
       H  3.50085e-01  7.70542e+00 -2.75625e-01
       H  1.36239e-01  9.48946e+00 -2.55228e+00
       O  4.00050e+00  2.58500e+00 -6.22686e+00
       H  2.70323e+00  3.44381e+00 -6.76260e+00
       H  5.41559e+00  3.69165e+00 -6.47537e+00
       O -2.73876e-01  9.89241e+00 -6.24017e+00
       H -1.96045e+00  1.09873e+01 -6.44367e+00
       H  1.25875e+00  1.10519e+01 -6.71733e+00
       O -3.19219e-01  5.15331e+00 -7.67718e+00
       H -6.29799e-02  5.37037e+00 -9.58966e+00
       H -4.60283e-01  6.99487e+00 -7.21755e+00
       O  4.03200e+00  1.25547e+01 -7.72927e+00
       H  4.15584e+00  1.25368e+01 -9.62660e+00
       H  3.97926e+00  1.41709e+01 -6.96351e+00
       O  2.47897e-01  4.75288e+00  6.73335e-01
       H -9.99576e-01  3.54279e+00  3.30549e-02
       H  2.07493e+00  3.88623e+00  2.27913e-01
       O  4.54934e+00  1.20977e+01  6.18510e-01
       H  2.93537e+00  1.10318e+01  3.18024e-01
       H  6.01716e+00  1.11559e+01  4.75524e-01
       O  4.52947e+00  2.28630e+00  1.30593e+01
       H  4.42858e+00  4.87911e-01  1.38782e+01
       H  4.12596e+00  2.33905e+00  1.11790e+01
       O  2.89676e-01  9.50125e+00  1.30063e+01
       H  3.90125e-01  7.72590e+00  1.33411e+01
       H -5.69591e-02  9.42674e+00  1.12103e+01
       O  3.98647e+00  2.59109e+00  7.59163e+00
       H  2.36924e+00  3.65511e+00  7.13479e+00
       H  5.43487e+00  3.70493e+00  7.20858e+00
       O -2.10851e-01  9.97739e+00  7.61820e+00
       H -1.85163e+00  1.10558e+01  7.18624e+00
       H  1.35338e+00  1.08558e+01  7.14711e+00
       O -3.09416e-01  5.19279e+00  6.16454e+00
       H -7.23616e-02  5.40551e+00  4.08765e+00
       H -1.13864e-01  7.10030e+00  6.59270e+00
       O  3.92928e+00  1.26434e+01  6.14290e+00
       H  4.06153e+00  1.25617e+01  4.39324e+00
       H  3.95613e+00  1.42570e+01  6.65769e+00
192
# CELL(abcABC):   16.99620    29.43815    27.67315    90.00000    90.00000    90.00000  Step:          30  Bead:      30 positions{atomic_unit}  cell{atomic_unit}
       O -8.20474e+00 -9.98082e+00 -1.31739e+01
       H  7.28933e+00 -1.08010e+01 -1.34284e+01
       H -6.58529e+00 -1.12980e+01 -1.33690e+01
       O -3.90436e+00 -2.55808e+00 -1.31711e+01
       H -5.56274e+00 -3.80507e+00 -1.34601e+01
       H -2.32544e+00 -3.63868e+00 -1.34345e+01
       O -3.93960e+00 -1.25783e+01 -8.57278e-01
       H -3.93481e+00 -1.43002e+01 -3.68459e-01
       H -4.30843e+00 -1.23810e+01 -2.68425e+00
       O -8.24107e+00 -5.21183e+00 -8.32615e-01
       H -8.26653e+00 -6.98491e+00 -4.57196e-01
       H -8.37555e+00 -5.03698e+00 -2.48775e+00
       O -4.50820e+00 -1.21273e+01 -6.27038e+00
       H -6.13099e+00 -1.10716e+01 -6.69851e+00
       H -3.15917e+00 -1.12329e+01 -6.72162e+00
       O  8.20571e+00 -4.81284e+00 -6.23033e+00
       H  6.73263e+00 -3.50091e+00 -6.35823e+00
       H -7.38832e+00 -3.68307e+00 -6.92035e+00
       O  8.25029e+00 -9.49457e+00 -7.69736e+00
       H  8.23327e+00 -9.34222e+00 -9.46773e+00
       H  8.41269e+00 -7.67292e+00 -7.05071e+00
       O -4.51018e+00 -2.10030e+00 -7.72303e+00
       H -4.15203e+00 -2.20320e+00 -9.42719e+00
       H -4.40191e+00 -4.01858e-01 -7.09895e+00
       O -8.25163e+00 -9.96220e+00  6.98376e-01
       H  7.30930e+00 -1.09121e+01 -3.34071e-02
       H -6.67758e+00 -1.10202e+01  3.47470e-01
       O -3.99428e+00 -2.62917e+00  7.05763e-01
       H -5.40071e+00 -3.42422e+00  1.66703e-01
       H -2.50299e+00 -3.78097e+00  4.38299e-01
       O -3.96595e+00 -1.24891e+01  1.30944e+01
       H -4.04630e+00 -1.41639e+01  1.35700e+01
       H -4.30409e+00 -1.24825e+01  1.10483e+01
       O -8.23677e+00 -5.12499e+00  1.30546e+01
       H -8.14377e+00 -6.97810e+00  1.34069e+01