192
# CELL(abcABC):   16.99620    29.43815    27.67315    90.00000    90.00000    90.00000  Step:           0  Bead:       1 velocities{atomic_unit}  cell{atomic_unit}
       O -9.89803e-04 -1.28566e-03 -3.74395e-04
       H -3.08449e-03 -1.90156e-03  1.03914e-03
       H  1.22280e-03 -5.52009e-03 -2.82295e-03
       O  8.60968e-05  8.86695e-04  1.08256e-03
       H -1.20948e-03 -4.94754e-03 -1.90373e-03
       H  1.34895e-03 -2.72651e-03 -5.28290e-03
       O  1.25256e-03 -6.58417e-04  1.16356e-03
       H -4.15047e-03  1.09613e-03 -6.99229e-04
       H  5.48971e-03  4.60266e-05  1.02744e-03
       O -8.62492e-04 -3.36872e-06  7.77521e-04
       H -9.06253e-04  3.32418e-03  3.51400e-03
       H -2.62909e-03  5.63257e-03  2.14993e-03
       O  2.74697e-04  6.07047e-04  5.97886e-04
       H -7.57676e-04 -1.88546e-03  5.68886e-03
       H  2.69304e-03 -1.61418e-03  8.54795e-03
       O -7.41360e-04  9.62025e-05  1.06671e-03
       H -2.57648e-03 -5.04144e-03  2.54200e-03
       H  1.53392e-03  1.89982e-03  4.01252e-04
       O -2.24499e-03  2.53178e-04  1.01106e-03
       H  7.36360e-04  3.14287e-03 -1.91343e-03
       H  3.21423e-03 -2.96122e-03 -3.84377e-03
       O  2.36554e-04  2.09373e-04 -1.26293e-03
       H  1.71811e-04 -3.43912e-03  1.48515e-04
       H  1.80102e-03 -8.21522e-03 -4.28829e-03
       O -6.17617e-04  5.87181e-04 -8.14188e-04
       H -1.63709e-03 -2.93685e-04 -1.17471e-03
       H  7.10268e-04  3.21921e-03 -6.30103e-03
       O  2.55928e-04  9.28458e-04  1.26067e-03
       H  7.24338e-03 -2.23272e-03  2.60506e-03
       H  1.92455e-03 -1.57798e-03  2.01551e-03
       O  6.80554e-04  1.44196e-03 -4.93378e-04
       H -6.64351e-03  4.53365e-04 -7.00011e-03
       H  2.38492e-03 -5.69761e-03 -5.08947e-03
       O -1.46024e-03 -6.50413e-04 -1.03319e-03
       H  5.83030e-04 -4.40494e-03  3.12201e-03
       H  7.58007e-04  4.89970e-04  1.47738e-04
       O  4.01923e-04 -4.11347e-04 -6.40382e-04
       H -1.84316e-03  6.55020e-04 -7.63946e-04
       H -8.94779e-04  1.48055e-03 -4.52073e-05
       O  9.59169e-04  1.25272e-03  2.35787e-04
       H  1.24147e-03  4.30809e-05  1.04098e-03
       H  2.60702e-03  1.99241e-03 -2.30752e-03
       O -4.22669e-04  4.43890e-04 -3.96913e-04
       H -2.44275e-03 -1.02047e-02  4.61488e-03
       H  1.70478e-03 -3.61735e-03 -4.26392e-03
       O  7.28641e-04 -1.08407e-03  5.43243e-04
       H  1.00999e-03 -2.57186e-03 -2.79604e-03
       H  4.06559e-03 -2.97568e-03 -4.73732e-03
       O  5.72534e-04  6.94222e-04 -2.01852e-03
       H  9.25618e-05 -7.67967e-04  7.64579e-04
       H -3.12996e-03  3.41444e-03  2.09732e-03
       O  9.60438e-04  1.27269e-04 -2.41634e-05
       H -5.01947e-03  3.38838e-03  3.55204e-06
       H -4.11939e-03  1.23388e-03  5.00251e-04
       O -3.14387e-04  7.13494e-04 -1.69487e-03
       H -2.35196e-03  3.47671e-03 -6.22366e-03
       H  2.10003e-03 -2.13565e-03  3.79090e-03
       O -8.08476e-04  1.83058e-04  5.22944e-04
       H  7.45810e-03 -1.48842e-03  6.14823e-04
       H  2.29362e-03 -2.54290e-03 -2.27939e-04
       O  9.06175e-05  1.67339e-04 -8.36501e-04
       H -1.60731e-03 -5.84105e-04  5.22074e-04
       H -5.03822e-03 -3.22524e-03  6.99063e-05
       O  2.12866e-04  1.41956e-03  2.43840e-04
       H  2.81680e-04  2.59620e-03 -1.52574e-03
       H  6.16228e-04 -4.23096e-03 -3.72319e-04
       O  1.96235e-03  8.42867e-04  7.20016e-04
       H  3.19781e-04  3.96573e-03 -1.91382e-04
       H -4.15136e-03  1.60597e-03  5.09126e-03
       O  7.28075e-04  1.28602e-03 -1.29141e-03
       H -2.41101e-03 -1.12465e-03 -7.74732e-04
       H  1.72585e-03 -4.45189e-03 -4.08658e-03
       O  1.74303e-03 -9.43532e-04  1.23606e-03
       H  8.27546e-05 -4.79074e-04 -1.62251e-03
       H  2.44164e-03 -2.23192e-03 -3.43097e-04
       O  1.07768e-03  1.38360e-03 -7.16100e-04
       H -2.96558e-03 -6.83254e-03  4.21606e-03
       H -3.03068e-03 -1.14840e-03  8.27352e-03
       O -8.95993e-04 -8.82494e-04 -2.34570e-04
       H  8.17091e-03 -6.78596e-03 -5.79466e-04
       H  1.58101e-03  8.50491e-04 -1.37402e-03
       O  2.49295e-04  1.75456e-03 -1.03613e-05
       H  1.13051e-03 -1.40943e-03  7.76252e-05
       H  8.45843e-04  2.75770e-03 -2.81257e-03
       O  4.45292e-04 -4.23081e-05  6.88918e-04
       H  1.56692e-03  5.06817e-04  4.22855e-03
       H -5.28513e-03  7.07038e-04  1.36101e-03
       O  3.01207e-04 -6.82271e-05 -2.47407e-04
       H -4.68354e-03 -3.57204e-03 -8.35399e-04
       H -3.94993e-04 -5.30115e-04 -4.89611e-04
       O -8.83402e-04 -2.25571e-04  4.02281e-04
       H  1.36068e-03  1.87496e-04 -4.35218e-03
       H -5.53988e-03 -1.09298e-03 -4.91936e-03
       O -3.21124e-04  2.61313e-04 -8.54557e-05
       H -4.36369e-03  4.63623e-03  2.77681e-03
       H -1.97726e-03 -6.82677e-03  1.20271e-03
       O  1.49019e-03 -9.28994e-04 -2.84565e-06
       H  1.81833e-03  8.77391e-03  3.31535e-03
       H -2.73650e-04  9.17618e-03  1.20684e-04
       O -1.51325e-04  1.02933e-03  1.32770e-03
       H -5.86402e-03 -5.07762e-03 -4.58505e-03
       H -5.85614e-03 -5.43141e-03  9.78806e-04
       O -4.69800e-04 -1.62040e-04 -2.76636e-04
       H  5.27569e-03  1.16519e-03  4.41178e-03
       H -2.90788e-03  1.63315e-03  4.71249e-03
       O -7.66978e-04  5.04065e-04  1.16341e-03
       H  3.60483e-04  1.89943e-03 -2.51070e-03
       H -1.55368e-03 -1.20758e-03 -3.72252e-03
       O  1.10725e-03  2.62814e-04  9.13118e-04
       H -4.68534e-03  1.64781e-03  7.27747e-03
       H  4.69170e-03 -3.53260e-03 -2.49586e-03
       O -7.82545e-04 -7.14073e-04  1.02184e-03
       H -6.88020e-03  1.59460e-03 -1.04137e-03
       H -6.14521e-03 -3.89673e-03 -1.66174e-03
       O -1.20401e-04 -1.63691e-03  6.54706e-04
       H -5.83930e-03 -7.66045e-03 -1.90981e-03
       H -3.69422e-03  9.30193e-04 -2.14973e-04
       O  1.00654e-03 -1.06844e-03 -8.82062e-04
       H -2.34443e-03  1.31488e-03  6.24678e-04
       H -2.20353e-03  3.78776e-03  5.53529e-03
       O -9.40743e-04  1.34661e-03  1.19663e-03
       H  4.35369e-03 -2.17544e-03 -7.90055e-04
       H  3.51997e-03  2.45059e-03 -3.52662e-03
       O -6.06158e-04  1.52408e-03  1.13182e-03
       H -3.20225e-03  1.47326e-03  8.89356e-03
       H -4.29285e-03  7.00591e-04  2.02017e-03
       O  1.19824e-03  6.64887e-04 -1.60626e-04
       H -1.22492e-03 -4.75489e-03  2.25271e-04
       H  3.45657e-03 -4.07364e-03  3.06968e-03
       O -1.06616e-04  7.19486e-04  6.11597e-04
       H  1.83546e-03 -3.78877e-03  1.72355e-03
       H  2.61486e-03  6.19244e-04 -4.54029e-03
       O -2.17665e-03 -2.41029e-04 -1.21981e-03
       H  5.20516e-03  2.68343e-03  1.15681e-03
       H -6.33570e-03  2.40290e-03 -1.04048e-04
       O  2.56921e-04 -8.90183e-04 -3.63076e-05
       H -1.55997e-03 -2.27011e-04  1.83199e-03
       H  4.88200e-03  1.86079e-03  1.70567e-03
       O -1.25193e-03  3.38434e-04 -9.18837e-04
       H -5.43140e-03  7.69494e-03  1.32427e-04
       H  5.03387e-03  5.25345e-03 -4.75650e-03
       O  5.84831e-04  3.08146e-04 -9.06226e-04
       H  2.06989e-03 -3.11532e-04 -4.45716e-03
       H -8.19707e-04  4.99217e-04 -4.53817e-03
       O -1.07364e-03 -1.33043e-03  2.02973e-03
       H  1.81642e-03  1.10217e-03  3.83036e-03
       H  5.30632e-03  4.66552e-03 -1.16993e-03
       O -1.86189e-04 -5.60528e-04 -7.04263e-04
       H -2.36594e-03 -3.79183e-03 -6.49397e-03
       H  2.13266e-03  1.59450e-03  1.62084e-04
       O  1.77568e-03 -9.82703e-04 -1.25923e-04
       H -2.26403e-03 -3.85884e-03  2.48460e-03
       H -4.02653e-03  3.48878e-03  6.08638e-04
       O -1.39112e-03  5.91591e-04  7.78741e-04
       H -4.14240e-04  4.48042e-03  3.51442e-03
       H  5.71522e-03  2.18277e-04  4.51508e-03
       O -1.51158e-04 -3.68057e-04 -2.79508e-04
       H  1.72016e-03  3.19488e-03  3.54549e-03
       H  6.48426e-04 -4.19338e-03 -3.76974e-03
       O  8.86090e-04 -6.04045e-04 -2.22051e-04
       H  2.07299e-03 -1.10514e-03 -3.96052e-03
       H  9.95362e-04  4.73512e-03 -3.00049e-03
       O  8.87489e-04 -3.82650e-04  2.59268e-04
       H  5.30008e-04  3.66835e-03 -9.39035e-03
       H  9.27700e-04 -2.76671e-03  1.95420e-03
       O  2.07916e-04  9.18395e-04 -1.13100e-03
       H -2.02106e-04  1.28589e-04  1.43427e-03
       H  2.39989e-03  2.00973e-03 -1.84561e-03
       O -8.37755e-05 -9.26090e-04 -2.98574e-04
       H  1.59599e-03 -2.72654e-03 -6.83931e-04
       H  3.60021e-03  1.62558e-03  1.54446e-03
       O  7.77604e-04  7.21996e-04  7.83779e-04
       H -1.00043e-03  3.35955e-03  4.21159e-03
       H -2.83824e-03 -1.67067e-03 -2.63603e-03
       O  1.11126e-03  7.04563e-04  6.69791e-04
       H -1.50262e-03  1.71414e-03  7.02545e-03
       H  2.06498e-03  4.30831e-03  7.22103e-03
       O -7.45006e-04 -8.94756e-04 -4.04928e-04
       H -1.26776e-03 -1.20939e-03  6.63804e-03
       H  5.57037e-03 -3.96858e-03 -2.05666e-03
       O -1.27429e-03  1.02753e-03 -5.73892e-04
       H  9.09770e-04 -2.01175e-03  5.17540e-03
       H -9.64980e-04 -5.20482e-03 -1.94655e-03
       O  4.11272e-04 -4.36254e-05  2.64118e-03
       H -3.27891e-03 -5.63208e-03 -2.66103e-03
       H  3.87894e-03  4.91667e-03 -3.69389e-03
       O -1.33514e-03  7.38227e-04 -5.21937e-04
       H  4.05717e-03  7.17013e-03  5.91229e-04
       H -3.03307e-04 -7.12109e-03 -5.08894e-03
       O -6.49064e-04 -5.65237e-05 -2.06293e-03
       H -2.39436e-03  1.75436e-03  4.74875e-03
       H -1.50704e-03  4.44065e-03 -1.23525e-03
192
# CELL(abcABC):   16.99620    29.43815    27.67315    90.00000    90.00000    90.00000  Step:          10  Bead:       1 velocities{atomic_unit}  cell{atomic_unit}
       O  2.24668e-04 -5.96167e-04 -2.52552e-04
       H -6.39175e-03  2.51440e-03 -5.15944e-03
       H -1.25281e-03 -3.63995e-03 -2.80192e-03
       O -8.40532e-04  2.24634e-03  3.35672e-04
       H  5.41228e-03  2.59618e-03  1.64763e-03
       H  3.49588e-03 -1.05874e-02  2.14414e-03
       O  1.58238e-03 -8.31214e-04 -2.97468e-04
       H -1.68887e-03 -3.06535e-03 -2.87496e-04
       H  3.27555e-03  3.66787e-03  3.09588e-03
       O -5.98227e-04 -5.33317e-04 -8.39891e-04
       H -4.58964e-03  3.92518e-03 -8.13632e-03
       H -2.59907e-03 -3.20307e-03  5.31830e-03
       O -6.85584e-04  3.14043e-04  1.64653e-04
       H  1.14987e-03  1.11196e-03 -5.91134e-03
       H  2.20927e-03 -8.54976e-03  3.25712e-03
       O  3.96893e-04  2.08334e-05  1.81925e-04
       H  2.61229e-03  8.90880e-03 -3.24521e-03
       H  5.43874e-03 -9.41441e-03  8.97241e-04
       O  1.39778e-04 -1.57419e-03 -3.31874e-04
       H  3.63335e-04  1.19034e-03  2.03500e-03
       H -3.10872e-03 -2.71367e-04 -5.87935e-06
       O  1.22034e-03 -6.69444e-04  8.05389e-04
       H  3.93507e-03 -2.71077e-03 -1.71392e-03
       H  6.83774e-04  4.05220e-03  3.33758e-03
       O -7.09419e-04  7.18825e-04 -2.88015e-04
       H  3.06946e-03 -5.33685e-03 -7.03009e-03
       H -8.05740e-04 -5.90731e-04  2.87155e-03
       O -1.10197e-03 -1.45992e-03  1.38141e-03
       H -2.67293e-04  1.21938e-03  2.02749e-03
       H  7.81887e-04 -3.07333e-03  9.55043e-03
       O  1.14931e-03 -6.72245e-07  7.71536e-04
       H  1.55560e-03  2.15059e-03 -2.01889e-03
       H -3.01135e-03 -3.11168e-03 -1.01534e-03
       O -1.60180e-03  5.03760e-04  2.90335e-04
       H  7.73751e-03  4.92646e-03 -1.52279e-03
       H  2.84332e-03 -7.03073e-04 -4.27776e-03
       O  2.85787e-04  2.17090e-03 -9.18669e-04
       H -4.26792e-03 -5.81024e-03  3.34976e-04
       H -2.51165e-03  2.43369e-03 -4.40760e-04
       O  1.87807e-03  5.56185e-04  8.02825e-04
       H  2.45074e-04  8.90292e-03 -2.38100e-03
       H  5.85005e-03  3.37781e-03 -5.39541e-04
       O -2.10276e-04 -7.11433e-04  4.81259e-04
       H -4.43071e-03  6.38945e-03 -2.74288e-06
       H -5.93294e-05  3.44274e-03  4.99363e-03
       O -4.28317e-04  6.09459e-04 -5.51972e-04
       H -3.25972e-03  1.73862e-03  7.51267e-04
       H -5.29371e-03  7.38015e-03 -3.21138e-03
       O  2.13553e-03  3.47934e-04 -5.02455e-04
       H  1.84220e-03 -2.74164e-03  3.63887e-03
       H -7.92562e-04 -3.15375e-03  5.66226e-03
       O -6.92725e-05 -3.07724e-04  5.80024e-04
       H -3.16705e-04  2.60653e-04  6.22426e-03
       H -4.98376e-03  2.31720e-03  3.03482e-03
       O -2.48448e-04 -5.66376e-04 -1.49627e-03
       H -3.82809e-03 -2.72806e-03 -6.39681e-03
       H  2.04915e-03 -5.98482e-03  9.02321e-05
       O  1.13251e-03  6.13454e-04 -2.14358e-03
       H -9.55824e-05  2.09632e-03 -3.39916e-03
       H -1.05582e-04 -2.28874e-03 -1.64700e-03
       O  1.33577e-03  1.07944e-03  4.23146e-04
       H  2.62223e-03 -1.17148e-03  4.18933e-03
       H  6.33955e-03 -3.84885e-03 -5.31878e-03
       O -1.01285e-03  3.58581e-04 -7.09769e-04
       H  2.20248e-05 -1.45043e-03  3.86714e-03
       H  2.94236e-03  2.75163e-03  1.09972e-03
       O  1.22090e-03  1.50023e-03 -1.36490e-03
       H -1.68843e-03  1.44550e-03 -5.31503e-03
       H -2.78829e-05 -1.89957e-03  2.02202e-03
       O -8.14409e-05 -5.02199e-04  5.08767e-05
       H  2.43606e-03  4.31488e-03  8.70185e-04
       H  3.28271e-03  2.71068e-03  1.12688e-03
       O -2.60009e-03  1.56665e-03  3.47791e-04
       H  8.65685e-04 -3.32742e-03 -1.83446e-03
       H -1.60088e-03 -7.66294e-04  7.12359e-03
       O  1.54422e-06  8.83111e-04  9.05561e-04
       H -3.79082e-03 -1.74834e-05 -3.06980e-03
       H  1.12617e-03 -5.47344e-03  1.03139e-03
       O -5.05238e-07  7.04624e-04  1.03471e-04
       H  4.24332e-03 -1.76307e-03  5.02965e-03
       H  4.11099e-04  3.97572e-03  4.09890e-03
       O -1.97236e-04 -1.11465e-03 -1.89556e-04
       H  5.64323e-03 -2.10334e-03 -5.67564e-04
       H  4.80413e-04 -1.89074e-03 -2.14387e-04
       O -1.88503e-03 -6.59338e-04 -1.66332e-03
       H  2.05453e-03 -2.53173e-03  1.16927e-03
       H -8.48269e-04  9.59411e-04 -2.52506e-03
       O  1.89075e-03 -1.29049e-03  9.76031e-05
       H -6.85421e-03 -2.17849e-03 -4.40182e-03
       H  4.42053e-04 -1.07637e-03  4.12979e-03
       O  4.22512e-04  1.70429e-03 -5.23772e-04
       H  4.33628e-03 -1.87440e-03 -2.56461e-03
       H  3.14794e-03  3.74779e-04 -2.23928e-03
       O -8.59680e-04 -7.20694e-04 -3.39696e-04
       H -2.40237e-04 -1.00870e-03 -3.33823e-03
       H  5.64474e-03  7.59097e-03  7.51871e-04
       O -2.48196e-04 -8.95804e-05 -1.03057e-03
       H -3.50284e-03 -3.05273e-04  6.59504e-03
       H -1.59356e-03 -1.37145e-03  1.96973e-03
       O  6.43407e-04 -8.17491e-04 -6.75024e-04
       H  1.44137e-03  1.21006e-03  5.80563e-03
       H  3.34782e-03 -1.90495e-03  3.67051e-03
       O -7.41129e-05 -4.25770e-04  1.12607e-03
       H -2.93292e-04 -1.16088e-02 -2.67278e-03
       H -7.53285e-03 -7.41819e-03 -5.61859e-04
       O  5.85586e-04 -2.59051e-04 -7.73712e-04
       H  1.56432e-04  1.29532e-03 -4.36521e-03
       H -1.67997e-03 -9.94261e-04 -5.42951e-03
       O -4.96571e-04 -3.72331e-04  9.97969e-04
       H  1.13531e-03 -1.22028e-03 -3.11737e-03
       H  1.19544e-03 -2.27933e-03  3.56505e-03
       O  1.75277e-03 -4.21269e-04  1.36469e-03
       H -2.40113e-03  6.93788e-03  1.15689e-03
       H  2.42171e-03 -1.98017e-03 -4.91277e-03
       O  4.68648e-04 -1.40441e-03  8.99514e-04
       H  5.49199e-03  1.14205e-03  3.26666e-04
       H  2.00588e-03  2.73053e-03 -2.03126e-04
       O  5.78786e-04  1.06726e-03  2.77587e-04
       H -4.70147e-04  3.30742e-03 -3.25718e-03
       H  3.92869e-03 -4.83049e-03 -5.32767e-03
       O -2.94711e-04  9.72538e-04  1.00336e-03
       H -8.18647e-03 -7.40339e-03  2.65786e-03
       H -3.52899e-03  3.62020e-03  9.81427e-04
       O  1.26428e-03  1.66313e-03  1.19496e-03
       H -1.67958e-04  1.56579e-03  3.21309e-03
       H -1.42385e-03  2.55150e-03  2.52796e-03
       O  1.34786e-03  9.41904e-04  1.60747e-03
       H  8.11319e-05 -1.88899e-03  2.97750e-03
       H -3.69479e-04 -2.21132e-04  2.99965e-03
       O -2.03362e-04 -2.28612e-04 -6.80953e-04
       H  2.56214e-03 -2.78743e-03 -6.60646e-04
       H  2.16050e-03 -4.82841e-04 -2.88909e-03
       O -1.20910e-04  3.41387e-04 -7.17214e-04
       H  7.58106e-04  1.13560e-05  4.05263e-03
       H -4.81971e-03  3.86556e-03  4.07264e-04
       O -3.55546e-04 -4.04225e-04 -7.74129e-04
       H  4.27240e-03  5.68352e-04  2.55348e-03
       H  4.35134e-03 -5.06531e-03 -6.89778e-03
       O  1.11276e-03 -2.25887e-04 -3.58894e-04
       H -5.30843e-03 -5.70580e-03  9.18304e-03
       H  1.10250e-03  8.30180e-04  6.59508e-03
       O -1.06631e-03 -6.45835e-05 -8.91075e-04
       H  6.60454e-03 -7.63966e-04 -8.07585e-04
       H -1.18887e-03 -2.63863e-03 -3.01298e-03
       O -4.53744e-04 -1.35824e-03  7.56773e-04
       H  4.19807e-04  3.30239e-03 -3.72652e-03
       H -8.79681e-03 -2.53226e-03 -2.79366e-04
       O  6.92182e-04 -5.65786e-04 -6.18722e-04
       H -1.60325e-03  7.47753e-03  6.59661e-03
       H -3.54476e-03  4.42648e-04 -2.47959e-03
       O -5.66877e-04 -2.32528e-04 -1.01508e-05
       H -4.67289e-03  1.68109e-03 -6.48903e-04
       H -6.77529e-03 -2.51976e-03 -1.85798e-03
       O  1.55298e-04 -1.21938e-04  1.35624e-03
       H  5.10538e-03 -2.09351e-03 -2.53552e-03
       H  1.46374e-03  7.67486e-03 -4.47045e-03
       O  1.09081e-03 -4.19998e-04 -9.56883e-05
       H -5.95837e-04  4.35774e-03 -5.50440e-03
       H -8.07390e-04  1.43054e-04  3.42175e-03
       O -1.13778e-03  4.58790e-05 -5.99355e-04
       H  1.18393e-03 -2.82654e-03  2.14470e-03
       H  2.90371e-03 -4.84384e-03  3.38940e-03
       O -4.03224e-04  5.20261e-04 -3.97801e-05
       H -1.96674e-03  4.49435e-03  2.83424e-03
       H -2.92533e-03  1.84429e-03  1.54409e-04
       O -3.41994e-05  1.61440e-03  4.05936e-04
       H -1.01073e-03 -2.08071e-03 -4.03352e-03
       H -5.20628e-03 -5.22290e-03  2.86396e-03
       O -1.38841e-03 -5.50469e-04  3.25673e-04
       H  2.32637e-03  3.78217e-03  6.31195e-03
       H  3.24068e-03  2.41829e-03  6.45218e-04
       O  1.45020e-04 -1.23670e-04  1.82533e-04
       H  9.45788e-03  3.30554e-03  2.11553e-03
       H  2.43568e-03 -1.18165e-03  3.43542e-03
       O -1.12472e-03  6.40708e-04 -8.51496e-04
       H  3.58617e-03 -3.75786e-03  1.74290e-03
       H -3.48069e-03 -2.00678e-04 -2.45303e-03
       O -4.30460e-04 -2.06617e-03 -1.55270e-03
       H  8.11911e-05  3.56728e-03  2.92242e-03
       H -2.98144e-03 -6.98961e-04  9.97318e-04
       O -1.01790e-03 -6.77655e-04 -8.19465e-04
       H -1.86688e-03 -1.49583e-03 -6.11204e-03
       H -3.39208e-03  1.40254e-03 -1.00746e-02
       O  3.10291e-04 -9.51033e-04  2.32978e-04
       H -2.20026e-03  2.33245e-03  7.92461e-03
       H  3.79183e-03 -1.86710e-03  1.56325e-03
       O  6.47140e-04 -2.18223e-04 -5.11501e-04
       H -2.63700e-03  1.86638e-03  3.10328e-03
       H -1.30551e-03  4.27629e-03  1.05387e-03
       O -4.38642e-04 -3.27906e-04 -1.16231e-03
       H  1.18244e-03 -1.54686e-03 -5.16688e-03
       H -7.34292e-04 -2.15895e-03  8.37395e-04
192
# CELL(abcABC):   16.99620    29.43815    27.67315    90.00000    90.00000    90.00000  Step:          20  Bead:       1 velocities{atomic_unit}  cell{atomic_unit}
       O  4.37744e-04  3.05529e-04 -2.70273e-04
       H  5.06345e-03 -5.49034e-04  4.54076e-04
       H  5.44597e-03  2.85413e-03 -5.17574e-03
       O -5.55213e-04 -2.69414e-04  5.99533e-04
       H  4.78681e-04  4.05338e-03  4.10574e-03
       H  5.71359e-04 -6.75707e-04 -3.72192e-03
       O  5.52746e-04  1.40661e-03  1.29717e-04
       H  5.02800e-03  4.12973e-03 -5.87392e-03
       H -4.87989e-03  5.10861e-03 -8.28077e-04
       O -6.72547e-04  3.79126e-04 -4.87105e-04
       H  2.72124e-03 -2.20232e-03 -2.98316e-03
       H  4.15903e-03  1.99822e-03 -2.27841e-03
       O -1.34322e-03 -4.07199e-04 -4.01672e-04
       H  3.08371e-03  4.17770e-03 -2.54714e-03
       H  4.30920e-03 -6.51518e-04  1.79992e-03
       O -1.89669e-04  8.01526e-04  1.06348e-03
       H  4.67247e-03  8.13326e-04  4.24736e-03
       H  2.29980e-03  3.75329e-03 -6.47888e-03
       O -4.91279e-04 -1.86264e-03 -1.99695e-03
       H  4.40427e-03  8.77329e-05  4.44498e-03
       H  5.50093e-03 -3.06556e-03  6.62286e-03
       O -7.00924e-04 -2.00730e-04 -1.74790e-03
       H  7.08284e-03  5.07525e-03 -4.65854e-03
       H -5.49180e-04 -5.43761e-04 -6.07904e-03
       O -6.20084e-04  2.13485e-04 -1.60863e-03
       H -2.52150e-03  2.23983e-03  4.28616e-03
       H  1.59996e-04  5.29130e-03 -1.63990e-03
       O -5.30398e-04  3.94017e-04  6.44523e-04
       H  2.84215e-03 -2.37131e-03 -3.49148e-03
       H  1.28364e-03 -4.52952e-03 -9.00885e-04
       O -1.74959e-03  6.36300e-04 -1.00146e-03
       H  6.62768e-04  1.17346e-03 -5.01625e-03
       H -8.52901e-03  4.17279e-03  3.64585e-03
       O -1.70423e-03 -1.87503e-04 -1.10416e-03
       H  4.73818e-03 -2.90333e-03 -2.40570e-03
       H  5.88782e-04  3.14598e-03 -5.63772e-05
       O  2.26426e-04  1.06307e-03  4.10823e-04
       H  2.87044e-03  1.04929e-03  4.30090e-04
       H -6.87874e-03  4.80714e-03  4.69149e-04
       O  1.68862e-03 -3.63111e-04 -5.81292e-04
       H  6.56876e-04  4.71787e-04  3.90502e-03
       H  1.85407e-03 -4.26863e-03 -1.79198e-03
       O -7.44145e-04 -1.60815e-04  1.22045e-03
       H -1.14030e-03 -1.98676e-03 -2.26789e-03
       H -4.05256e-03 -4.09133e-04 -2.77547e-03
       O -1.45724e-03  1.07854e-03  6.55389e-04
       H  1.66481e-03  1.96027e-03  2.86489e-03
       H -9.81562e-03  3.05931e-03 -4.65591e-03
       O -5.35949e-04 -1.57749e-05 -4.16742e-05
       H  1.80136e-03  4.99859e-03  5.69413e-03
       H -2.67078e-03  3.99902e-03 -2.76626e-03
       O -1.98579e-03 -1.19765e-04 -1.95757e-03
       H  5.16235e-03 -1.08523e-03 -5.67006e-03
       H  1.88901e-03 -1.05228e-03  1.02107e-03
       O -5.15810e-04  3.13558e-04  1.25387e-03
       H  4.96187e-03  3.60937e-03 -2.66593e-04
       H  1.20027e-03 -5.66056e-05  4.33196e-03
       O  3.46189e-04  7.41571e-04 -2.19749e-04
       H  2.77442e-04 -6.40067e-03 -1.19544e-03
       H -3.49907e-03  2.47527e-03  1.78414e-03
       O -4.16779e-04 -1.67957e-03  1.34439e-03
       H  1.14952e-03 -3.19126e-03  2.65335e-03
       H -2.53523e-03 -9.44179e-04  6.83664e-05
       O -9.71079e-04  1.43063e-04 -1.10870e-03
       H -5.93513e-03  1.08567e-04 -2.67588e-03
       H -5.57696e-03 -1.05967e-03  1.74777e-03
       O  5.51195e-04 -6.73072e-04  4.59789e-04
       H -1.20483e-03 -3.06600e-03  1.88702e-03
       H -4.47513e-03 -1.78035e-03 -6.95502e-04
       O  4.35805e-04  6.65705e-04  4.82060e-04
       H -6.49732e-03  1.46379e-03 -5.42807e-03
       H -3.07674e-04  5.15379e-04 -2.21070e-03
       O -8.38609e-04  1.00982e-03 -1.69800e-05
       H -1.36086e-03 -2.75090e-03 -9.11876e-04
       H -4.49800e-03  2.96219e-03 -2.62691e-03
       O -6.35230e-04 -1.69966e-03  1.39050e-04
       H  6.96868e-03 -3.71054e-03  5.36498e-03
       H  7.93778e-04  3.09008e-03  8.94612e-04
       O  1.61372e-03  5.89495e-04  8.34414e-04
       H -5.04877e-03 -2.87347e-03 -2.99828e-03
       H -3.24665e-03 -3.45313e-03  6.57571e-04
       O  4.45836e-04  2.74964e-04  5.18348e-04
       H  1.35247e-03 -6.68649e-03  1.28087e-03
       H  8.11162e-03  4.37342e-03  5.18127e-03
       O -1.22708e-03  7.97766e-04  3.40443e-04
       H -3.33920e-03 -6.24718e-03  6.37311e-04
       H  3.60328e-04 -3.36836e-04  7.33244e-03
       O  1.96535e-04  3.00131e-04 -9.14196e-04
       H  1.85141e-03 -7.09244e-03  2.20742e-03
       H  5.20927e-04 -2.25601e-03 -2.57309e-03
       O -3.34991e-04  8.43870e-04  5.17318e-04
       H  7.42641e-04  9.57356e-03  9.37770e-04
       H -3.47545e-03 -3.12406e-03 -2.44140e-03
       O -8.40352e-04  1.89097e-04 -9.44156e-05
       H -8.07234e-04 -1.63858e-03 -4.18712e-03
       H -2.12620e-03  3.52899e-03 -1.52838e-03
       O  7.76226e-04 -5.93886e-04 -1.13501e-03
       H  4.05792e-03  2.93571e-03  2.35136e-03
       H  8.22346e-04 -1.59680e-03 -2.05344e-03
       O  3.39511e-04 -1.42889e-03  1.46814e-03
       H  3.04327e-03 -3.90926e-03 -7.28795e-03
       H  2.62940e-03 -4.04418e-03 -1.99563e-03
       O  6.89192e-04 -7.10334e-04  4.79088e-04
       H -2.62221e-03 -1.34184e-03  4.87522e-03
       H  7.47495e-03  7.33710e-04  4.71465e-03
       O  8.40032e-04 -9.28584e-04  7.94690e-04
       H  2.33105e-05  5.84912e-04  3.52372e-03
       H  2.94647e-03  2.45418e-03  3.99159e-03
       O  1.32375e-03 -1.73658e-03 -2.65875e-04
       H  1.96698e-03  1.69366e-04  5.56797e-04
       H  5.94769e-04 -1.02715e-05 -7.47018e-03
       O  7.10341e-04 -2.97791e-03  4.04318e-04
       H  1.49432e-03  1.66555e-04 -1.02652e-03
       H -1.30644e-03 -3.27723e-03  1.46572e-03
       O -6.68215e-04  1.26896e-03 -1.57149e-03
       H  4.23347e-03  1.21677e-03  1.82948e-03
       H  2.06453e-03  2.12029e-04 -1.31729e-03
       O -2.23213e-03 -9.78980e-04 -3.82523e-04
       H  5.87259e-03 -3.29916e-03  2.02616e-03
       H -1.41769e-03  2.24400e-03 -1.21548e-03
       O -9.94730e-05 -1.99564e-04 -1.06774e-05
       H  2.53180e-03  3.07589e-03  2.41111e-03
       H -1.42605e-03  5.50570e-03  3.74547e-03
       O -2.54142e-04  8.50787e-05 -1.94185e-03
       H  2.73472e-03  1.48466e-03 -9.69485e-04
       H -1.36681e-03  2.25189e-03 -6.56656e-04
       O  1.69916e-03 -8.91296e-04 -1.72995e-04
       H  1.15315e-02  2.17462e-05 -8.15740e-04
       H -3.81692e-03  8.07920e-04 -5.67994e-03
       O  6.35147e-04 -5.17056e-04  1.69083e-04
       H -4.39130e-03  1.11012e-03  2.72015e-03
       H  1.24919e-03 -1.19229e-03 -2.61374e-04
       O -8.28432e-04  1.34485e-03  9.88280e-04
       H -5.28521e-03  6.78889e-04 -1.94078e-03
       H -5.63501e-04  2.49156e-03  2.31608e-03
       O -6.79749e-04 -4.91726e-04 -9.92270e-04
       H  1.56463e-04 -6.47755e-04 -3.54958e-03
       H -5.10189e-03 -4.61259e-03  3.78032e-03
       O  2.01544e-03  1.45871e-04  1.54652e-04
       H  1.99585e-04  7.11901e-03  8.50309e-04
       H -3.54625e-03 -7.60259e-04  4.45789e-03
       O -4.63662e-05  6.34490e-05 -6.90483e-04
       H  1.65847e-03  7.92372e-04  2.12927e-03
       H  2.73417e-03  4.64827e-03  3.63803e-03
       O  8.41789e-07  1.60797e-03  6.83782e-04
       H  1.32453e-03 -1.07859e-03 -2.48814e-04
       H -3.14876e-03 -5.44169e-03 -5.14435e-03
       O  6.56568e-04 -7.11878e-05  1.83515e-04
       H -1.63542e-03  3.53784e-03 -2.73267e-03
       H  1.78960e-03  8.04705e-03  3.66863e-05
       O -7.27174e-04  1.22895e-03  2.05495e-03
       H -2.51110e-03 -8.76366e-03 -1.09748e-03
       H  8.46928e-05 -5.57196e-04 -4.07100e-03
       O  2.85984e-04 -9.58703e-04 -5.66930e-04
       H -1.05863e-03 -4.81623e-03  5.57129e-03
       H  5.64204e-03 -4.43667e-03  4.60919e-03
       O  8.42379e-05  3.36093e-04  5.49273e-04
       H -1.02444e-03 -1.53918e-03  2.33489e-03
       H  3.55489e-03 -4.23854e-03  2.47727e-03
       O  2.49908e-04  5.53812e-04 -1.14301e-03
       H -1.15324e-03  5.61042e-04  2.05403e-03
       H  1.36865e-03 -4.19516e-03  1.01869e-03
       O -6.27722e-04  2.01350e-04 -2.50518e-04
       H  3.66132e-03  2.87164e-03  6.85217e-03
       H -4.37496e-04 -2.98598e-03  2.98102e-03
       O  1.14766e-04 -2.14760e-04  9.74439e-04
       H  5.10675e-04  1.74573e-03  2.84269e-04
       H  1.78780e-03  4.50184e-03  7.90747e-03
       O  2.47482e-04 -6.15102e-04 -5.89404e-04
       H  9.70978e-03 -4.05132e-04 -7.39144e-03
       H -5.04817e-03 -2.80514e-03 -5.57678e-03
       O -1.57972e-03  6.56740e-04 -1.68519e-04
       H -2.64419e-03  1.18926e-03  4.97074e-03
       H -3.50691e-03  2.58470e-03 -1.68374e-03
       O  8.45866e-04  1.22587e-03 -2.99929e-04
       H  1.97914e-03  1.79644e-03  4.22651e-05
       H -4.22154e-05  2.75357e-04  2.78596e-03
       O  6.90836e-04  1.77241e-04  2.49805e-04
       H  1.96885e-03  8.12404e-03  1.13709e-03
       H -2.17953e-03  8.85277e-04 -1.54837e-03
       O  8.66711e-04  3.25936e-05 -7.18293e-04
       H  4.21292e-04 -6.77720e-03 -2.43970e-03
       H -4.08426e-03  9.94674e-04 -4.25625e-04
       O  9.83849e-04 -1.64341e-04 -1.12028e-03
       H  4.13224e-04  9.10038e-04  3.04274e-03
       H -2.42212e-03 -3.57194e-03  2.02791e-03
       O -1.57881e-03  1.79064e-04  1.44614e-04
       H  4.17752e-03 -2.05039e-03 -2.95045e-03
       H -1.83685e-04  6.61195e-03 -3.41532e-03
       O  1.38927e-03  4.34391e-05  3.52515e-04
       H -3.12290e-03  6.77518e-04 -3.38348e-04
       H -2.61641e-03  1.56678e-03  9.37532e-04
192
# CELL(abcABC):   16.99620    29.43815    27.67315    90.00000    90.00000    90.00000  Step:          30  Bead:       1 velocities{atomic_unit}  cell{atomic_unit}
       O  7.66266e-04  2.21034e-04  1.60352e-03
       H -4.07072e-03  1.50491e-03 -2.51749e-03
       H -4.74516e-03  1.82090e-03  2.52186e-03
       O -1.48625e-04  2.61475e-04  1.51963e-04
       H -1.48487e-03 -6.98518e-03  3.82750e-03
       H -4.87103e-03  5.46809e-04  2.21400e-03
       O  1.20492e-03  9.70513e-04 -9.86629e-04
       H  4.76312e-04 -7.93215e-03  1.30000e-03
       H  1.22002e-04  1.03639e-04 -4.56094e-03
       O  8.90718e-04 -1.44440e-03 -7.82706e-05
       H -1.57405e-03  5.37012e-03 -2.10215e-03
       H -3.45835e-03 -3.35977e-03 -1.24668e-03
       O -1.25954e-04 -1.30645e-03 -6.31125e-04
       H -2.32457e-03 -6.38142e-03  9.55956e-04
       H -1.05071e-03 -3.35066e-03 -3.19814e-03
       O -7.71398e-04  2.26664e-03 -3.23604e-04
       H  4.07450e-04 -6.40110e-04 -6.94561e-03
       H -5.00868e-03  1.62631e-03  1.28870e-03
       O  8.13975e-04 -1.26242e-03 -9.29487e-04
       H -7.28655e-03 -9.68250e-04  4.86738e-03
       H -3.38439e-03 -5.93914e-04  9.09084e-03
       O -1.06949e-03 -7.50675e-04  4.68467e-04
       H  3.81977e-04 -4.45673e-03  1.09694e-03
       H  4.64078e-03  4.93185e-03  8.66750e-04
       O  7.65920e-04  5.19022e-04 -2.08835e-03
       H -1.95397e-03  2.62013e-03 -1.25853e-03
       H  5.54008e-03 -3.33809e-03 -9.51203e-04
       O -1.07977e-03 -7.20281e-04 -9.46079e-04
       H  1.20593e-03 -2.51039e-03  2.03600e-03
       H  2.87758e-03  2.29666e-03 -7.18184e-04
       O -1.70479e-03  1.67482e-03  1.18467e-03
       H  5.16103e-03  9.06255e-03  8.02148e-03
       H -2.74714e-03  8.98371e-04 -2.45144e-04
       O  1.03222e-03  1.32128e-03 -6.18727e-04
       H -1.88458e-03 -3.04430e-03 -1.02633e-02