192
# CELL(abcABC):   16.99620    29.43815    27.67315    90.00000    90.00000    90.00000  Step:           0  Bead:       9 velocities{atomic_unit}  cell{atomic_unit}
       O  7.00294e-04  1.84255e-04  5.85786e-04
       H -1.48241e-03 -5.12895e-04  2.53181e-03
       H  3.87732e-04  4.23129e-03 -4.74620e-03
       O  6.06682e-04 -5.44605e-04  2.47891e-03
       H  1.35255e-03 -2.07900e-03  6.90051e-04
       H  3.49487e-04 -3.35421e-03 -8.49013e-03
       O -1.94024e-03  1.15173e-03  7.38213e-04
       H -2.92408e-03  5.28690e-03  3.54274e-03
       H -7.35080e-03  2.79340e-03 -1.15205e-03
       O -4.67527e-05  2.50617e-04  6.10480e-05
       H -4.64236e-03  4.89477e-04 -3.93763e-03
       H -5.94443e-03  2.72302e-03 -4.32844e-03
       O  3.83565e-04  4.70783e-04  6.78191e-04
       H  1.19915e-03 -3.42436e-03 -2.02680e-03
       H  7.00693e-03 -1.33203e-03  1.31450e-03
       O -9.30894e-04  7.82883e-04 -5.16833e-04
       H -3.59598e-03 -3.46890e-03  7.56032e-04
       H  3.27616e-03  2.79237e-03 -4.63715e-03
       O  1.34439e-03  5.52052e-04 -7.00267e-04
       H -8.70652e-03 -1.17141e-03 -1.04394e-03
       H -2.04166e-03 -6.28207e-03  2.48122e-03
       O  5.24151e-04 -3.79009e-04  2.97915e-04
       H  1.15903e-04  2.66479e-03  2.26248e-04
       H -1.34457e-03 -1.68321e-03 -2.71221e-03
       O  4.63232e-04  1.62049e-03  7.98292e-05
       H  1.38228e-04 -2.70791e-03 -1.99799e-03
       H -2.11890e-03  4.04895e-03  7.74200e-04
       O  2.36837e-04 -6.65134e-04 -9.82978e-04
       H  1.58229e-03  3.28656e-05  2.39585e-03
       H -6.05836e-04 -4.99289e-03  3.63771e-03
       O  8.99799e-04  1.08973e-03 -8.85928e-04
       H  3.78356e-04 -2.32108e-03  3.57525e-03
       H  5.65225e-04 -3.11431e-03 -3.82527e-03
       O  9.22896e-04  4.24442e-04 -1.37048e-03
       H  4.92203e-03 -3.96641e-03 -7.39059e-03
       H  2.27151e-04 -1.40833e-03 -5.40854e-03
       O -2.38031e-04 -3.37298e-04  1.35886e-03
       H  2.66226e-03 -7.72533e-03  8.57537e-03
       H -1.33954e-04  4.63736e-03 -5.21638e-03
       O -1.19941e-03 -2.14973e-04 -8.49039e-04
       H  1.18560e-03  1.45894e-04  3.57613e-04
       H -2.99019e-03 -1.40900e-03 -4.13691e-03
       O -7.52477e-04 -4.92212e-04 -8.75125e-04
       H -1.21329e-03 -2.69601e-03 -2.25826e-03
       H -5.17320e-03 -3.48875e-03  2.83480e-03
       O -1.96141e-03 -8.26350e-04 -7.41247e-04
       H  1.42463e-04 -5.93066e-03  5.91192e-03
       H  4.68406e-03  2.78152e-04 -6.22261e-04
       O -4.24208e-04 -1.03474e-03 -1.97143e-04
       H -3.15007e-03 -3.49506e-04  7.40311e-04
       H  2.93570e-04 -1.28463e-03 -1.35790e-03
       O -1.65869e-03  1.42494e-03 -3.05262e-04
       H -4.56494e-04  5.81514e-04 -3.23034e-03
       H  4.36373e-03 -5.80931e-03 -1.87684e-04
       O -3.58720e-04  8.44483e-04  7.32778e-04
       H  3.37963e-03  5.04762e-03 -2.89615e-03
       H -1.29865e-03  1.89342e-03 -4.11192e-03
       O  2.50855e-04  1.10820e-03 -1.09916e-03
       H  3.94162e-03 -2.73579e-03  1.62341e-03
       H  5.24697e-03  6.63129e-03  2.59239e-03
       O -4.76696e-05  1.49785e-03  2.24767e-03
       H -8.13740e-04 -3.46636e-03  6.48735e-04
       H  1.82905e-03 -2.64164e-03  2.16514e-03
       O  7.83654e-04 -9.15546e-04 -6.94918e-05
       H -7.63096e-04 -3.09814e-03  5.07092e-03
       H -7.21987e-05 -3.28323e-03  6.87914e-04
       O  1.02624e-03  2.47883e-04 -1.66775e-03
       H  1.91375e-03 -4.53362e-03  1.20696e-03
       H  3.58764e-03  3.93425e-03 -4.34884e-03
       O  4.46101e-04  1.91648e-04 -1.69933e-03
       H  4.47856e-03 -1.30755e-03 -1.95019e-03
       H -6.37488e-04  7.32900e-03  5.39242e-03
       O  1.98760e-03  8.19341e-04  1.52088e-03
       H -1.28635e-03  2.96578e-03 -3.36191e-03
       H -4.30028e-03  7.09829e-04 -4.36826e-03
       O -1.01227e-03  5.26903e-04  1.73525e-04
       H  2.20033e-03 -1.58238e-03  1.15372e-03
       H  3.33660e-03 -1.86894e-03  2.68711e-03
       O -1.49278e-03 -9.88736e-04  1.59275e-03
       H  4.63980e-03 -7.97957e-04  2.89985e-04
       H  3.87073e-03  3.50899e-03  1.11497e-03
       O  5.24184e-04  2.97408e-04  1.66408e-04
       H -4.72182e-03 -1.62247e-03 -8.85449e-03
       H -3.97077e-03 -6.17607e-03  2.24101e-03
       O  2.11515e-04  1.16062e-03 -5.74423e-04
       H  5.06923e-03  4.78631e-03 -5.36213e-03
       H  2.21789e-03  1.79668e-03  3.83911e-03
       O -1.54876e-03  2.36683e-04 -1.34322e-04
       H  1.08564e-03  1.17314e-03 -4.72246e-03
       H  4.87105e-03 -3.79091e-04 -1.27279e-03
       O -9.81015e-04 -5.76912e-04  1.75948e-03
       H -2.17759e-03 -5.80023e-03  3.11161e-03
       H  7.44677e-04 -1.73237e-03  4.85075e-03
       O -1.69440e-04 -1.08735e-03 -9.87999e-04
       H  1.50785e-03  5.88147e-03  2.59619e-03
       H -7.37604e-03 -9.97535e-04 -2.13628e-03
       O  1.11839e-03 -3.91998e-04  2.18564e-04
       H -5.59000e-03 -2.02011e-03 -1.76742e-03
       H -6.02229e-03 -5.55917e-03 -4.28485e-03
       O -6.42282e-04  1.37234e-04 -3.47264e-04
       H  5.98490e-03 -3.26319e-03  2.66733e-03
       H -3.22750e-04  4.16093e-03 -1.95258e-03
       O -3.98225e-05  6.78765e-04 -6.70731e-04
       H -3.63671e-03 -2.72527e-03 -2.54885e-03
       H  2.32557e-03  8.43486e-04 -3.06914e-04
       O -3.14958e-03 -5.02360e-04 -2.91810e-04
       H  6.64652e-04 -5.12907e-03 -3.56792e-03
       H  7.84224e-03  1.40945e-03  1.25307e-03
       O -9.39273e-05 -3.37677e-04 -7.57478e-04
       H  2.04135e-03 -4.06935e-03 -2.60942e-03
       H  1.08283e-03  2.67044e-03  3.12405e-03
       O -9.58509e-04  9.30260e-04 -3.00464e-04
       H  1.01413e-03 -7.58450e-03 -2.70373e-03
       H -6.46028e-03 -9.18753e-04 -3.23647e-03
       O  2.54514e-04  5.53795e-04  2.07138e-03
       H  3.61165e-03 -3.67722e-03  8.03260e-03
       H  9.36846e-04 -3.42304e-03 -6.39317e-04
       O  1.03376e-03 -6.33667e-04 -1.32526e-04
       H  6.06771e-03  6.53176e-04  3.25297e-03
       H  1.21033e-03  5.01521e-03  2.00382e-03
       O -2.79419e-04  3.39527e-04  1.64980e-03
       H  1.12749e-02  4.77737e-03  3.67135e-03
       H -1.10218e-03  4.15722e-03  1.78466e-03
       O -1.29788e-04  1.38673e-04  7.70663e-04
       H -1.75321e-03 -2.13333e-03  2.52089e-03
       H -4.31902e-03 -2.25793e-03  1.93053e-04
       O  1.16074e-03 -5.27149e-04  9.46585e-04
       H -9.31285e-04 -5.15206e-03 -2.32527e-04
       H -4.02836e-05  3.18889e-03  2.67498e-03
       O  9.96565e-04  1.12050e-03  7.60410e-04
       H  3.77447e-04  1.21429e-03  5.69306e-03
       H -3.75894e-03 -1.25809e-03  3.62610e-03
       O  2.98809e-04 -9.19809e-04 -1.04532e-03
       H  2.77414e-03 -3.21402e-04 -2.98781e-03
       H  4.44492e-04  2.63446e-03  1.64994e-03
       O -6.18949e-04 -2.11905e-03  1.43141e-04
       H  1.10017e-03  4.30790e-05 -2.46779e-03
       H -2.11214e-03  9.77920e-04 -1.87041e-03
       O -1.45501e-03  7.60085e-04 -2.15507e-05
       H -3.46792e-03 -5.33091e-03 -1.01611e-03
       H  3.80127e-03  1.35311e-04  1.48628e-03
       O  3.45348e-04  2.62222e-04 -4.72968e-05
       H  5.06109e-03 -4.83126e-03 -8.73844e-04
       H -1.92583e-03  7.62763e-04 -2.72154e-03
       O -7.55652e-04 -3.10933e-05  2.13165e-03
       H -3.85633e-03 -1.24220e-03 -1.31208e-02
       H -3.94739e-03 -2.47914e-03 -1.50852e-03
       O -9.63564e-04  3.85322e-04 -6.65675e-04
       H  3.31870e-03 -1.56631e-03 -3.03221e-03
       H -5.46379e-03 -7.03570e-04  3.80028e-04
       O -3.17428e-04  1.45356e-03  1.56587e-04
       H  2.30145e-03  2.55491e-03 -2.82701e-03
       H  1.20898e-03  5.16354e-03 -9.67595e-04
       O -1.94764e-03 -1.76479e-04 -1.09947e-03
       H  5.46433e-03 -4.09512e-03  4.36881e-03
       H  4.45543e-03 -1.03607e-03 -2.60779e-03
       O  5.04791e-05 -2.83073e-04  1.57067e-04
       H  1.80490e-03 -4.23216e-04 -2.01628e-03
       H  1.08547e-03  2.81646e-03  6.73148e-03
       O  7.17581e-04  4.11341e-04  1.50869e-04
       H -3.49789e-03  1.39414e-03 -2.90330e-03
       H  1.69892e-03  1.35511e-04 -2.87620e-03
       O -1.45512e-04 -1.66213e-03 -3.31712e-04
       H  4.38613e-03 -3.95483e-03  2.51034e-03
       H -1.96884e-03  3.09548e-03 -1.57888e-04
       O -7.00479e-04 -1.75753e-04  1.01653e-03
       H -2.18735e-04 -1.00119e-03 -4.40023e-03
       H -3.74254e-03  3.80839e-04  1.87581e-03
       O -3.65606e-04 -2.45071e-04  3.73049e-04
       H -5.46437e-03 -2.22569e-03 -5.03467e-03
       H  4.34088e-03 -4.09945e-03 -4.85084e-03
       O -5.44781e-04 -4.57838e-05  4.92630e-04
       H  3.20369e-03  5.74186e-03  1.08263e-03
       H -2.59561e-03 -3.26638e-03 -1.50569e-04
       O  7.51425e-04  1.13353e-03 -4.71267e-04
       H -4.88144e-05  8.90584e-04 -4.38155e-04
       H -1.35243e-03  4.33704e-03 -1.73405e-03
       O  1.78781e-05 -8.35744e-04 -3.11847e-04
       H -3.07479e-03 -5.19479e-03  2.41877e-03
       H -5.27786e-03  1.23119e-03  1.89380e-04
       O -3.31603e-04 -2.81886e-04 -1.48956e-03
       H  9.04171e-04  5.20992e-03 -2.32569e-03
       H -3.33984e-03 -6.26760e-04  8.22691e-03
       O -1.69841e-04 -1.35805e-03  4.36646e-04
       H  4.21455e-03 -1.88507e-03 -1.00414e-03
       H -8.10386e-03 -2.52535e-03 -9.34321e-04
       O -7.68947e-04  4.00930e-04  1.08044e-04
       H -1.74841e-03  8.35727e-03  2.06512e-03
       H -5.88892e-04 -1.19243e-03 -5.05729e-04
       O  4.01718e-04 -6.16090e-04  1.18393e-03
       H -4.67663e-03  8.53978e-04  1.77189e-03
       H  1.44714e-03  2.36340e-03  1.02176e-03
192
# CELL(abcABC):   16.99620    29.43815    27.67315    90.00000    90.00000    90.00000  Step:          10  Bead:       9 velocities{atomic_unit}  cell{atomic_unit}
       O  4.62657e-04 -7.61597e-04  3.55382e-04
       H -7.04700e-03 -3.29146e-03 -3.21071e-03
       H -7.77939e-04  1.07937e-03 -3.55642e-03
       O  8.59580e-04  3.69137e-04 -3.58121e-04
       H  2.54531e-03  1.70246e-03 -2.37339e-05
       H -4.29083e-04 -1.31478e-03  2.65569e-03
       O -1.50271e-03  1.61239e-03  2.29162e-04
       H  5.16535e-03 -3.11230e-03  1.61817e-03
       H  3.66974e-03  3.60580e-03  2.89056e-03
       O -2.51042e-04  5.49156e-04  6.42733e-04
       H -3.55802e-03 -4.61116e-04 -2.32541e-03
       H -1.55836e-03 -4.81666e-04  8.40167e-04
       O  1.14703e-03  6.57079e-05  4.87743e-04
       H  2.89791e-03 -2.06427e-03  9.34844e-04
       H  5.06805e-04 -1.33352e-03 -1.08330e-04
       O -6.95366e-04  1.18147e-03 -8.34208e-05
       H  2.23572e-03  1.39265e-03 -1.07059e-02
       H -5.63857e-03  2.78376e-03 -7.51354e-04
       O -1.02309e-04 -1.12721e-03  1.19843e-03
       H -1.12419e-03  6.37878e-03 -4.85558e-04
       H  2.13139e-04 -3.50678e-03  5.05251e-03
       O -1.06890e-03  2.32379e-04 -6.75692e-04
       H  5.75371e-03 -5.08947e-03 -4.20709e-04
       H -3.56002e-03 -3.42048e-03 -2.51482e-03
       O  1.14938e-03 -3.61083e-04  9.95038e-04
       H  1.01729e-03 -2.36177e-03  5.62440e-04
       H -1.58234e-03 -4.58436e-03  2.40638e-03
       O  7.92851e-05  2.01939e-04 -5.58685e-04
       H -4.96358e-03 -9.54879e-03 -3.77396e-03
       H  1.99193e-03  7.30444e-03  1.33611e-03
       O -6.30746e-05  2.43066e-04 -6.96109e-04
       H -3.07627e-03 -3.52247e-03 -2.03309e-03
       H -6.62128e-05  5.91972e-03 -6.14274e-03
       O  4.02987e-04  8.71506e-04 -1.72260e-04
       H -6.09911e-03 -3.26164e-03 -1.99719e-03
       H  2.90151e-03 -4.10661e-03 -1.38015e-03
       O  2.68341e-04 -1.83343e-04  1.77858e-04
       H -2.44420e-03 -1.18935e-03  1.93125e-03
       H  1.45068e-03 -2.72096e-03 -3.29872e-03
       O -1.32581e-03  6.17151e-04  2.99098e-04
       H -3.11732e-03  1.67302e-03 -6.55842e-04
       H -5.13883e-04  2.47949e-03 -1.21750e-04
       O  3.52723e-04 -5.88965e-04  3.08142e-04
       H  1.77510e-04  2.97821e-03 -6.00430e-04
       H -2.35141e-03  5.94938e-03  2.36385e-03
       O  4.15701e-04  7.06550e-04 -2.26847e-05
       H  2.41859e-04 -3.88761e-03  7.32401e-04
       H -3.05615e-03 -2.47435e-03  4.43990e-03
       O -2.62057e-04 -2.65906e-04  1.01640e-04
       H  1.43491e-03 -7.69925e-04  6.24034e-03
       H -5.95124e-04  5.35699e-04  5.05478e-03
       O  1.06767e-03  6.76660e-04 -8.02119e-04
       H -1.65282e-03 -4.49566e-04 -5.39068e-03
       H  2.77860e-03  7.13636e-04  1.03832e-03
       O -7.68497e-04 -8.29422e-04 -6.98150e-04
       H -2.13379e-03  9.74556e-04  1.12504e-03
       H  4.31122e-03 -2.44029e-04  1.02072e-03
       O -5.12810e-04 -2.15612e-04  1.61841e-03
       H  2.13173e-03  3.28152e-03  5.07454e-03
       H  8.39384e-03 -1.07463e-03  3.56325e-03
       O -1.16814e-04  1.45382e-04 -4.95613e-04
       H -7.16116e-04  1.29764e-03 -3.83316e-03
       H -3.92736e-03  1.26354e-03  6.04430e-04
       O  1.40078e-03  2.82177e-04 -1.25782e-03
       H -1.10576e-03 -9.10164e-05 -2.50923e-03
       H -1.70981e-03 -7.26177e-04 -2.76042e-03
       O  8.11804e-04  1.18080e-03  3.98113e-04
       H -6.94268e-03  7.32460e-04 -1.96201e-03
       H  4.82584e-03  6.53033e-03  6.58841e-05
       O -1.27021e-03  2.22072e-03 -3.50955e-04
       H -1.62890e-03  4.71606e-04  1.17001e-03
       H -1.65109e-03  2.42410e-03 -7.08748e-03
       O -9.06544e-04 -1.59350e-03 -4.90831e-05
       H  4.44447e-03  1.17804e-03  1.39152e-03
       H -1.21201e-03 -2.58124e-04  4.73115e-03
       O -2.76078e-04  2.02696e-04 -4.81566e-04
       H  1.47127e-03 -6.80789e-03  1.44094e-03
       H  4.77270e-04  3.04781e-04  6.06107e-03
       O -6.59051e-04  2.27958e-04 -2.12694e-03
       H -1.93845e-03 -1.67464e-03 -2.37560e-03
       H -2.08503e-03 -4.67030e-05 -4.68075e-04
       O -8.85533e-04 -9.70377e-04  8.76700e-05
       H -1.55823e-05  2.99144e-03  1.92313e-03
       H -1.66393e-03 -6.27700e-03 -8.36669e-04
       O  1.78348e-03 -4.25695e-04 -9.98900e-04
       H -4.78358e-03 -8.29289e-04  8.91615e-04
       H  2.94371e-03  1.79226e-03 -7.54168e-04
       O -1.32166e-04 -1.14723e-03 -3.61787e-05
       H -1.68475e-03 -3.38541e-03  2.11052e-03
       H  1.59493e-03 -2.70220e-03 -1.05875e-03
       O -1.01097e-03 -6.99081e-05 -3.79800e-04
       H -1.97359e-03  1.42206e-03  5.56868e-04
       H  4.28646e-03  3.77562e-03 -2.67085e-03
       O -4.67044e-04  1.50300e-03 -7.40169e-04
       H  3.57134e-04 -1.50600e-03  5.20891e-03
       H  8.75932e-04 -3.11237e-03  1.68828e-03
       O -5.84368e-04 -3.02984e-04  3.87214e-04
       H -1.62392e-03  1.67880e-03 -2.31953e-04
       H  1.72453e-03 -4.86035e-03 -4.82735e-03
       O -1.29472e-03 -4.16809e-04  4.14997e-04
       H  4.28370e-03  3.68751e-03  5.51768e-04
       H -2.77295e-03 -1.49958e-03 -2.52265e-03
       O  2.30988e-04 -7.61214e-04  1.56127e-04
       H  3.29501e-03 -1.19052e-03 -2.67975e-03
       H -6.05144e-03  3.81872e-03  4.63026e-03
       O  4.35457e-04  9.60428e-04  5.79404e-04
       H -2.80607e-03 -9.31411e-03  7.78344e-03
       H  7.53005e-03 -5.95308e-03  1.99808e-03
       O -3.65437e-04  1.03015e-03 -4.76139e-04
       H -1.72078e-03 -5.50002e-04 -4.54143e-03
       H  4.11757e-03 -1.14443e-03  1.62508e-03
       O -1.17191e-03  2.22940e-04 -1.18331e-03
       H  1.84120e-04  8.57231e-04 -3.04076e-04
       H -1.84954e-03 -2.79044e-03 -3.81524e-03
       O -1.60276e-03 -2.69003e-05 -1.20788e-03
       H  1.04910e-03 -3.53139e-03 -2.92934e-03
       H  9.21174e-04  6.20850e-06 -5.06483e-03
       O -1.46733e-03 -3.68713e-04 -2.49232e-05
       H  9.48657e-04 -6.78180e-03  4.21888e-03
       H  3.50347e-03 -2.51476e-03  8.38919e-04
       O  1.50975e-03 -1.08992e-03 -1.18894e-04
       H  8.67720e-04 -3.85899e-03  4.98654e-04
       H  1.86491e-04  7.93229e-04 -8.06182e-04
       O  2.52979e-04  1.28585e-03  1.15846e-03
       H -2.98541e-04 -6.60376e-03 -6.17450e-04
       H -1.13551e-03 -3.05242e-03 -1.88115e-03
       O -1.61034e-03  1.45613e-04  1.67715e-03
       H -1.95885e-03 -2.77296e-03  1.75597e-03
       H  2.24321e-04 -4.94508e-03 -6.00779e-05
       O  7.28223e-04  3.79719e-04 -2.34072e-04
       H  3.33679e-03  2.13922e-03 -6.94054e-03
       H -4.14181e-03 -7.17212e-04 -4.52782e-03
       O -1.29456e-03 -1.25933e-03 -1.79234e-03
       H  3.12274e-03 -3.63135e-03  4.65456e-03
       H -2.10240e-03  3.83580e-03 -5.95750e-03
       O  6.20736e-04 -7.18991e-04 -1.38161e-05
       H  2.56744e-03 -3.86110e-03 -1.37453e-03
       H -1.04788e-04  2.50876e-03  1.30511e-03
       O  1.94948e-04 -8.87630e-04 -1.31606e-03
       H -6.85692e-03  4.34325e-04 -7.14223e-03
       H  7.30894e-03  5.98579e-04  8.23871e-03
       O  4.12532e-04  4.78338e-04  6.34876e-04
       H  6.21815e-03  4.10250e-03  1.58990e-03
       H -4.68402e-03 -4.29237e-03 -1.77504e-03
       O  2.51407e-04  1.11624e-03 -3.02746e-04
       H  3.64840e-03  6.33017e-03 -3.50183e-03
       H -7.14503e-03  2.99552e-03 -6.76461e-04
       O  9.37762e-04 -1.13443e-04 -1.24200e-03
       H  5.70580e-03  3.34609e-03 -1.27921e-03
       H  2.16851e-04  3.15373e-03  5.00793e-03
       O -1.58377e-03  2.99895e-04 -9.70351e-04
       H -5.88793e-05  3.21694e-04  5.60002e-03
       H -3.89886e-03 -9.95602e-03  2.74977e-03
       O -1.21387e-03  3.45402e-05  1.69352e-04
       H  4.42137e-03  6.43598e-03 -5.13477e-03
       H  1.71518e-03  2.18482e-03  2.72819e-03
       O -6.00007e-04 -1.07786e-03  8.53830e-04
       H -4.73977e-03  3.84561e-03 -6.46056e-04
       H  8.13964e-03 -2.61889e-03 -7.03468e-04
       O  1.13633e-03  1.15827e-03 -4.99018e-04
       H -9.43515e-04 -3.11903e-03  2.52253e-03
       H -1.47578e-03  3.15872e-03  5.73464e-04
       O  6.23546e-04  1.06654e-03  6.57348e-04
       H  4.13556e-03  2.26801e-03  3.64657e-05
       H -3.37553e-03 -7.84519e-04  3.33562e-04
       O -8.70029e-04  7.40054e-04  1.95918e-04
       H -2.41897e-03  1.74712e-03  4.24041e-03
       H  3.02805e-04  9.02836e-04  6.00315e-03
       O -1.76769e-03  1.16797e-04  8.05722e-04
       H -2.86643e-03 -3.67207e-03  9.67271e-03
       H  2.50688e-03 -9.27411e-03  2.91119e-04
       O -4.26978e-04 -3.29930e-04 -1.67898e-03
       H -1.16309e-03 -1.18946e-03 -2.47575e-03
       H  5.44177e-03 -1.19665e-03 -4.55838e-03
       O -8.62142e-04  1.51844e-03  1.02940e-03
       H  4.23265e-03  3.57328e-03  3.60537e-03
       H  2.19124e-03 -4.02130e-03 -4.83276e-04
       O -3.66512e-04 -8.51837e-04 -1.83535e-04
       H  4.96703e-03 -3.38738e-03  1.77093e-03
       H -3.45589e-03  4.47851e-03 -2.65339e-03
       O  7.99929e-04 -4.27801e-04  1.67912e-03
       H -3.60278e-03  1.64917e-03  2.90716e-04
       H  4.58571e-03 -2.17647e-03 -8.49531e-03
       O  1.30976e-03 -2.53463e-04 -1.27210e-03
       H -5.06740e-03  1.84021e-03  2.94010e-03
       H  1.99970e-03  1.34534e-05 -3.07817e-03
       O -7.28307e-04 -1.11395e-03 -1.33873e-03
       H  1.46340e-03  1.15197e-03  1.57126e-03
       H -2.96712e-03 -2.28909e-03  5.30583e-04
       O -1.72842e-06  1.73409e-04 -7.80158e-04
       H  4.23522e-04 -4.29405e-03 -6.67150e-04
       H -3.06890e-03  8.00072e-04  5.13572e-03
192
# CELL(abcABC):   16.99620    29.43815    27.67315    90.00000    90.00000    90.00000  Step:          20  Bead:       9 velocities{atomic_unit}  cell{atomic_unit}
       O -9.06924e-04 -6.79364e-04 -9.95832e-05
       H  1.77952e-04  7.31445e-03  2.84692e-03
       H -4.41508e-03 -6.13602e-03 -2.34010e-03
       O  7.55364e-04 -7.12017e-05  1.05785e-04
       H -1.89639e-03  4.97359e-03  3.54018e-03
       H -2.04000e-03  2.47728e-03 -7.69551e-03
       O -3.58268e-04  1.19873e-03 -9.62571e-04
       H -3.64154e-03  1.73851e-03 -6.09899e-03
       H  6.61885e-03 -5.37072e-03  6.98598e-05
       O  4.88049e-04  4.67908e-04  2.48032e-03
       H -1.48772e-03 -2.81367e-03  5.37567e-03
       H -3.51821e-04  1.00234e-02  4.42846e-03
       O  2.00171e-04 -6.07973e-04 -4.22430e-04
       H  3.34361e-05 -6.08714e-03 -5.16374e-03
       H  2.18642e-03 -3.71707e-03 -5.92619e-04
       O  3.68624e-04 -2.79104e-04  6.29885e-04
       H -2.83938e-03 -6.16701e-04  3.74632e-03
       H  3.49413e-03 -3.15350e-03  2.36052e-03
       O  1.29692e-04  1.00686e-03  1.05369e-03
       H -2.47153e-03  5.99977e-03  1.39224e-05
       H  4.88913e-04  9.25736e-04  7.72768e-04
       O  5.15619e-04  3.73585e-04 -1.22693e-03
       H  4.37571e-03  3.14309e-03 -1.51485e-03
       H  3.44543e-04  2.37296e-03 -2.11913e-03
       O -9.78172e-04  4.26604e-04  7.49043e-04
       H  5.33754e-03 -3.79056e-03  2.80329e-03
       H  1.01603e-02  3.55097e-03 -2.80967e-03
       O  1.61280e-03 -1.87794e-03  1.28778e-03
       H -9.76698e-06  9.50965e-03  3.68488e-03
       H -3.58264e-03 -5.48541e-03 -1.14001e-03
       O  1.91597e-03 -3.61967e-04  5.99098e-04
       H -3.79725e-03  2.69372e-03 -9.01925e-03
       H  2.05114e-03  4.90527e-03 -7.04389e-03
       O -3.09574e-04  9.75551e-04 -1.35506e-03
       H -1.38239e-03 -2.74825e-03  5.84252e-03
       H  6.34177e-03 -5.35024e-03 -4.09060e-04
       O  4.38365e-05 -3.33998e-04  1.34472e-03
       H -1.36082e-03 -1.70734e-03 -6.69618e-04
       H  2.25992e-03  3.41520e-03  8.21957e-03
       O  7.64879e-04 -1.12742e-03  9.02548e-04
       H -5.64459e-03 -2.89327e-03  7.43346e-04
       H  1.26124e-03  4.28999e-03  5.10963e-03
       O  5.48829e-04  3.17775e-04  1.29704e-03
       H -4.51125e-03 -8.30059e-04  4.26249e-03
       H  5.45819e-03  3.05695e-03  5.41642e-04
       O -7.85406e-04  1.13265e-03  4.25431e-04
       H  7.05649e-03  1.47746e-03 -9.71105e-04
       H  1.35467e-03 -6.81853e-03  4.08489e-03
       O  1.23881e-03 -9.03330e-04 -4.12840e-05
       H -7.54158e-04 -2.22510e-03  6.50525e-03
       H  2.13642e-03  1.67847e-04 -1.79881e-03
       O  2.74436e-04  1.44379e-03  5.60885e-05
       H -1.77869e-03 -9.96636e-03  1.56408e-03
       H -1.49239e-03 -5.86125e-03 -2.87211e-03
       O  8.38744e-04 -1.71253e-03 -7.23255e-04
       H  2.64606e-03 -3.28505e-03 -2.70788e-03
       H -7.99924e-04 -6.89263e-03  3.75942e-03
       O -2.05328e-03 -1.91573e-04  8.91919e-06
       H  4.51740e-04 -3.58640e-03  1.87671e-03
       H -5.27337e-04 -8.52818e-04 -6.31178e-03
       O -6.90980e-04  9.77403e-04  1.95817e-05
       H -3.05625e-03 -1.76808e-03  4.62675e-04
       H -1.28499e-03 -2.01986e-03  3.00027e-03
       O -1.65161e-04 -4.52453e-04  5.09780e-04
       H  6.91097e-04 -1.92166e-03 -1.22269e-03
       H -8.09908e-03 -6.40052e-03  8.17153e-03
       O  9.69427e-05  7.21058e-05 -1.81751e-03
       H  8.87771e-03 -1.36973e-03  7.11990e-04
       H  1.88509e-03 -6.02161e-03  2.08832e-03
       O  1.73736e-04 -9.83488e-05 -6.83577e-04
       H -2.12756e-03 -4.36579e-03 -7.95246e-04
       H -5.66005e-04  7.57788e-04 -3.40043e-03
       O -8.93689e-04  1.31664e-03 -1.08624e-03
       H -2.90674e-03 -7.86700e-05 -1.98675e-03
       H -1.97611e-03  1.05922e-03  4.87827e-03
       O  1.39061e-03  1.72832e-03  1.74775e-05
       H -1.94391e-03  2.67708e-03 -4.44039e-03
       H -2.56000e-03 -5.11587e-03 -1.87103e-03
       O -2.63385e-04 -1.28175e-03  1.29197e-03
       H  2.03892e-03  2.39385e-03  1.37653e-03
       H  1.95565e-03 -7.80034e-03 -7.45308e-04
       O  7.94671e-04 -5.61876e-04 -1.63173e-03
       H -1.32236e-03  4.04396e-03 -2.31684e-03
       H -3.25971e-03 -3.96909e-05  5.29481e-04
       O -1.26071e-03 -5.50393e-05  3.87426e-04
       H -1.55716e-03  3.01148e-03  5.86751e-06
       H -5.85725e-03  9.40194e-03  2.07766e-03
       O  1.80705e-04  2.30078e-04  1.08312e-04
       H -6.91908e-04  2.18336e-03 -3.19366e-03
       H  1.25824e-04 -1.54105e-05 -5.09535e-03
       O  5.38193e-04 -5.53447e-04  2.96729e-04
       H -9.86781e-04  7.43625e-05  6.99875e-03
       H -6.07724e-03  4.15387e-03  7.49883e-05
       O  9.06168e-05  1.80570e-04 -1.02513e-03
       H -2.05510e-03 -9.53944e-04 -8.19567e-03
       H  2.46046e-03 -1.09282e-03  4.15694e-03
       O  3.97982e-04  1.00220e-04  4.21482e-04
       H -1.74163e-03  2.31166e-04  2.57066e-03
       H  4.10668e-03  6.27133e-03 -1.63873e-03
       O  1.99805e-03  1.20678e-03  4.72351e-04
       H -1.69999e-03  7.55311e-03  3.98097e-04
       H -4.11535e-03 -4.62752e-04  1.47782e-03
       O -6.48312e-05  4.40379e-04 -8.89765e-04
       H -3.60804e-04  8.44149e-05  1.35535e-03
       H -1.23067e-03 -6.25456e-03 -5.18275e-03
       O  9.47542e-04  4.06837e-04 -1.11594e-03
       H  3.08210e-03  1.05703e-04  9.36108e-04
       H -6.42897e-03  3.04458e-03  6.03421e-03
       O -2.60975e-04  1.46071e-03  1.24281e-03
       H  2.90656e-03 -4.74507e-04  2.48957e-03
       H  1.18097e-03 -9.11603e-05 -2.04377e-03
       O -1.41559e-03 -4.41781e-04 -2.08331e-03
       H  2.15790e-03  1.79597e-04 -8.10086e-05
       H -2.16774e-03 -1.73097e-03 -8.24707e-04
       O  8.24908e-04 -2.50931e-03 -2.41506e-04
       H  4.09588e-03 -2.81483e-03 -1.89596e-03
       H -5.67497e-05  6.87425e-04  3.06900e-03
       O  1.16382e-03  9.92031e-04 -6.21283e-04
       H  2.14917e-03  2.66017e-03  5.55399e-03
       H -1.03527e-04 -1.18699e-03  5.43317e-04
       O  1.97861e-04 -4.20482e-04  1.76970e-04
       H  1.29375e-03 -3.69757e-03 -2.72955e-03
       H  1.58800e-03  1.47929e-03 -2.71675e-03
       O  1.05959e-04 -3.36050e-04 -2.97384e-04
       H -4.02634e-03  2.01074e-03  6.46481e-03
       H  2.70178e-04  1.57048e-03  4.25647e-03
       O  1.11672e-03  2.00962e-04  9.10967e-04
       H -1.83364e-03  3.60516e-03  2.10702e-03
       H -4.76976e-03  1.70243e-03 -2.20776e-03
       O  5.51449e-04 -1.08660e-03 -4.82800e-04
       H  1.13081e-03  1.67816e-04  2.83516e-03
       H  6.05018e-03  1.69986e-03  1.98175e-03
       O  9.42985e-04 -1.20686e-03  6.81315e-05
       H -2.46321e-03  3.68975e-03 -2.95282e-04
       H  9.17366e-04 -4.11367e-03  9.44659e-03
       O -6.35256e-04  1.07780e-03  1.66384e-04
       H  2.38809e-03  2.09666e-03 -2.19549e-03
       H  1.00378e-02 -3.47857e-03 -8.89011e-03
       O -6.33698e-04 -4.79109e-04 -2.97611e-04
       H -5.34884e-03 -5.97679e-04 -4.85665e-04
       H -4.25776e-04 -1.96652e-03 -1.05703e-03
       O  6.97336e-04 -1.42185e-03  9.70786e-04
       H -3.63565e-03 -5.71216e-03 -3.69139e-04
       H  5.40291e-03  3.15489e-03  2.15644e-03
       O -3.36578e-04  1.04232e-03  5.92770e-04
       H -1.24443e-04 -7.47968e-04  5.97092e-04
       H  7.32365e-04  4.17391e-04  2.34237e-03
       O -1.72888e-03 -4.54230e-04 -8.54098e-06
       H  3.43644e-03  4.06559e-03  1.37520e-03
       H  8.34348e-03 -3.89105e-03  5.54798e-04
       O  1.68951e-05  8.93370e-04 -9.01087e-04
       H -1.36600e-03 -5.86621e-03  1.00679e-03
       H  1.83174e-03  1.10894e-04  2.21438e-03
       O -3.33681e-04 -1.47486e-03 -7.53837e-04
       H -3.13614e-04 -5.43349e-03  3.06914e-03
       H -2.43232e-03 -6.95779e-03 -6.10509e-03
       O  2.99017e-04  4.71822e-04  7.67651e-05
       H  4.35012e-03 -4.92585e-03  3.90109e-03
       H -1.62338e-03 -4.07049e-03  2.35358e-03
       O -1.41446e-04 -1.06190e-03  2.35713e-04
       H -2.67887e-03  7.63401e-03  4.25052e-03
       H  2.14244e-03 -3.56626e-03 -1.19494e-03
       O  8.74333e-04  1.14598e-03  1.69493e-04
       H  1.54948e-03  1.41563e-03 -9.01585e-04
       H  8.32331e-04 -5.61126e-05  4.44667e-03
       O  9.83744e-04  6.74338e-04 -4.08884e-04
       H -6.61385e-03  8.29996e-03  6.03025e-03
       H  2.75442e-03 -2.58519e-03 -7.22680e-04
       O -1.39629e-03  6.31226e-04 -1.94895e-03
       H  3.71849e-03 -5.09456e-03 -1.63859e-03
       H -3.72622e-03  2.02498e-03 -5.82827e-04
       O -3.03016e-04  9.47994e-04 -2.59681e-04
       H -3.16024e-03 -2.77480e-03 -4.83486e-04
       H  7.57148e-04  1.46147e-04  3.56983e-03
       O -1.55812e-04  3.57249e-04 -1.50006e-04
       H -3.90594e-03  6.56246e-04  9.92629e-04
       H  1.47036e-03 -2.04512e-03  6.39020e-04
       O  1.69975e-04  1.45791e-04 -1.56972e-03
       H -2.40129e-03  8.72472e-05 -8.90868e-03
       H  5.98626e-04  3.33420e-03  4.61927e-04
       O  6.64080e-05 -8.95192e-04 -2.31481e-04
       H -3.38722e-03 -5.15186e-03 -1.48439e-03
       H -2.68106e-03  1.56025e-03 -1.49797e-03
       O -1.81102e-03 -4.35823e-04  4.82372e-04
       H  1.67473e-03 -3.11438e-03 -2.22904e-03
       H  3.33880e-03  2.31191e-03  4.03084e-03
       O  2.04870e-04 -9.52093e-04 -1.36899e-03
       H -3.52238e-03  4.27825e-03  1.04148e-03
       H  1.91610e-03  2.47113e-04  2.55202e-04
       O  8.03078e-04 -1.59062e-03  3.28026e-04
       H  1.62306e-03 -8.72019e-04 -3.17063e-03
       H  5.32536e-04 -6.82772e-04 -5.09886e-03
192
# CELL(abcABC):   16.99620    29.43815    27.67315    90.00000    90.00000    90.00000  Step:          30  Bead:       9 velocities{atomic_unit}  cell{atomic_unit}
       O  3.83401e-04 -1.01831e-03  1.24137e-03
       H  3.15802e-03  3.78249e-04  2.78592e-04
       H -3.87608e-03  2.64315e-03 -8.34570e-04
       O -9.31563e-04 -1.03742e-03  4.45439e-04
       H  1.93350e-03 -2.79605e-03  4.31983e-03
       H  1.88249e-03  2.65063e-03  4.05859e-03
       O  1.97830e-03  3.31892e-04 -1.91017e-03
       H  2.32689e-03  1.18597e-03  2.77560e-03
       H -2.19813e-03  1.16957e-03 -5.15615e-04
       O -1.21865e-03 -8.27544e-04  3.10621e-05
       H  1.55604e-03 -3.05761e-03  1.11461e-05
       H -4.58154e-03 -2.59576e-04  4.69064e-03
       O  1.09483e-04  1.09281e-04  4.62242e-04
       H  5.76842e-03  4.05552e-03 -4.13134e-03
       H  3.73113e-03 -9.90824e-05 -2.10348e-03
       O  6.05775e-04  3.19465e-04 -3.51752e-04
       H -4.20185e-03  2.68866e-03  5.01975e-03
       H -7.63461e-04  4.26308e-04 -8.00315e-04
       O  1.74357e-04 -1.03729e-03 -1.24817e-04
       H  4.54576e-03 -5.42055e-04  1.16778e-03
       H -1.77408e-03  1.89475e-03 -1.27452e-03
       O -5.81024e-04  4.72331e-04  1.11269e-03
       H  8.77627e-04  5.07422e-03  2.67899e-03
       H  4.75427e-04 -1.34915e-03  7.11258e-04
       O  1.55584e-03  1.93834e-03 -5.90692e-04
       H  1.87002e-03 -4.76456e-03  1.52844e-03
       H  6.77776e-03  4.88549e-03 -2.17883e-03
       O -6.16287e-04 -3.56514e-04 -4.75460e-04
       H -2.25470e-03 -3.50226e-03  2.75751e-03
       H -1.46443e-03 -2.41392e-04  1.12555e-03
       O  2.74899e-04  2.98290e-04 -9.42909e-05
       H -7.95842e-03  2.29578e-03  8.01138e-03
       H  2.24195e-03  3.18029e-03  2.45183e-03
       O  1.03711e-03 -6.07642e-04  1.26973e-04
       H  1.45558e-04  3.84420e-03 -7.35170e-04