192
# CELL(abcABC):   16.99620    29.43815    27.67315    90.00000    90.00000    90.00000  Step:           0  Bead:      26 positions{atomic_unit}  cell{atomic_unit}
       O -8.21943e+00 -9.93714e+00 -1.31733e+01
       H  7.30975e+00 -1.09659e+01 -1.36333e+01
       H -6.70309e+00 -1.09427e+01 -1.35003e+01
       O -3.97045e+00 -2.57760e+00 -1.31733e+01
       H -5.43740e+00 -3.60640e+00 -1.36335e+01
       H -2.45410e+00 -3.58307e+00 -1.35002e+01
       O -3.95479e+00 -1.25494e+01 -7.82537e-01
       H -3.95303e+00 -1.43463e+01 -2.27998e-01
       H -4.14654e+00 -1.25640e+01 -2.59980e+00
       O -8.20381e+00 -5.18980e+00 -7.82573e-01
       H -8.20206e+00 -6.98662e+00 -2.28079e-01
       H -8.39554e+00 -5.20430e+00 -2.59985e+00
       O -4.52774e+00 -1.21415e+01 -6.25501e+00
       H -6.04401e+00 -1.11359e+01 -6.58198e+00
       H -3.06070e+00 -1.11128e+01 -6.71509e+00
       O  8.21948e+00 -4.78197e+00 -6.25503e+00
       H  6.70316e+00 -3.77646e+00 -6.58191e+00
       H -7.30970e+00 -3.75321e+00 -6.71514e+00
       O  8.20373e+00 -9.52922e+00 -7.70081e+00
       H  8.39566e+00 -9.51468e+00 -9.51806e+00
       H  8.20220e+00 -7.73240e+00 -7.14624e+00
       O -4.54345e+00 -2.16975e+00 -7.70084e+00
       H -4.35162e+00 -2.15526e+00 -9.51812e+00
       H -4.54503e+00 -3.72917e-01 -7.14634e+00
       O -8.21943e+00 -9.93697e+00  6.63195e-01
       H  7.30977e+00 -1.09657e+01  2.03202e-01
       H -6.70308e+00 -1.09425e+01  3.36227e-01
       O -3.97044e+00 -2.57760e+00  6.63173e-01
       H -5.43747e+00 -3.60635e+00  2.03069e-01
       H -2.45410e+00 -3.58312e+00  3.36346e-01
       O -3.95472e+00 -1.25494e+01  1.30540e+01
       H -3.95309e+00 -1.43462e+01  1.36086e+01
       H -4.14653e+00 -1.25640e+01  1.12368e+01
       O -8.20380e+00 -5.18990e+00  1.30541e+01
       H -8.20202e+00 -6.98672e+00  1.36085e+01
       H -8.39553e+00 -5.20434e+00  1.12368e+01
       O -4.52771e+00 -1.21415e+01  7.58159e+00
       H -6.04402e+00 -1.11360e+01  7.25460e+00
       H -3.06070e+00 -1.11128e+01  7.12152e+00
       O  8.21944e+00 -4.78191e+00  7.58149e+00
       H  6.70312e+00 -3.77633e+00  7.25453e+00
       H -7.30974e+00 -3.75322e+00  7.12139e+00
       O  8.20378e+00 -9.52926e+00  6.13582e+00
       H  8.39564e+00 -9.51474e+00  4.31856e+00
       H  8.20221e+00 -7.73246e+00  6.69037e+00
       O -4.54344e+00 -2.16971e+00  6.13568e+00
       H -4.35161e+00 -2.15522e+00  4.31840e+00
       H -4.54506e+00 -3.72896e-01  6.69017e+00
       O -8.21947e+00  4.78210e+00 -1.31734e+01
       H  7.30974e+00  3.75335e+00 -1.36334e+01
       H -6.70314e+00  3.77651e+00 -1.35002e+01
       O -3.97046e+00  1.21415e+01 -1.31733e+01
       H -5.43745e+00  1.11127e+01 -1.36334e+01
       H -2.45410e+00  1.11360e+01 -1.35002e+01
       O -3.95479e+00  2.16971e+00 -7.82462e-01
       H -3.95303e+00  3.72884e-01 -2.27933e-01
       H -4.14646e+00  2.15509e+00 -2.59975e+00
       O -8.20376e+00  9.52923e+00 -7.82499e-01
       H -8.20200e+00  7.73238e+00 -2.27998e-01
       H -8.39546e+00  9.51472e+00 -2.59977e+00
       O -4.52774e+00  2.57749e+00 -6.25512e+00
       H -6.04400e+00  3.58312e+00 -6.58197e+00
       H -3.06066e+00  3.60618e+00 -6.71512e+00
       O  8.21949e+00  9.93715e+00 -6.25509e+00
       H  6.70318e+00  1.09426e+01 -6.58202e+00
       H -7.30970e+00  1.09659e+01 -6.71526e+00
       O  8.20366e+00  5.18988e+00 -7.70077e+00
       H  8.39552e+00  5.20437e+00 -9.51803e+00
       H  8.20217e+00  6.98669e+00 -7.14625e+00
       O -4.54337e+00  1.25494e+01 -7.70088e+00
       H -4.35159e+00  1.25639e+01 -9.51817e+00
       H -4.54500e+00  1.43462e+01 -7.14634e+00
       O -8.21952e+00  4.78190e+00  6.63226e-01
       H  7.30971e+00  3.75313e+00  2.03107e-01
       H -6.70317e+00  3.77635e+00  3.36440e-01
       O -3.97040e+00  1.21415e+01  6.63326e-01
       H -5.43738e+00  1.11127e+01  2.03185e-01
       H -2.45407e+00  1.11360e+01  3.36426e-01
       O -3.95476e+00  2.16964e+00  1.30541e+01
       H -3.95303e+00  3.72832e-01  1.36087e+01
       H -4.14651e+00  2.15510e+00  1.12369e+01
       O -8.20373e+00  9.52937e+00  1.30540e+01
       H -8.20206e+00  7.73252e+00  1.36085e+01
       H -8.39548e+00  9.51483e+00  1.12368e+01
       O -4.52770e+00  2.57756e+00  7.58140e+00
       H -6.04399e+00  3.58315e+00  7.25450e+00
       H -3.06066e+00  3.60630e+00  7.12138e+00
       O  8.21951e+00  9.93714e+00  7.58157e+00
       H  6.70319e+00  1.09427e+01  7.25463e+00
       H -7.30968e+00  1.09658e+01  7.12140e+00
       O  8.20369e+00  5.18993e+00  6.13578e+00
       H  8.39547e+00  5.20441e+00  4.31850e+00
       H  8.20212e+00  6.98674e+00  6.69030e+00
       O -4.54348e+00  1.25494e+01  6.13570e+00
       H -4.35158e+00  1.25639e+01  4.31845e+00
       H -4.54503e+00  1.43462e+01  6.69025e+00
       O  2.78573e-01 -9.93717e+00 -1.31734e+01
       H -1.18842e+00 -1.09659e+01 -1.36336e+01
       H  1.79493e+00 -1.09427e+01 -1.35002e+01
       O  4.52772e+00 -2.57751e+00 -1.31733e+01
       H  3.06068e+00 -3.60627e+00 -1.36334e+01
       H  6.04403e+00 -3.58305e+00 -1.35003e+01
       O  4.54334e+00 -1.25494e+01 -7.82465e-01
       H  4.54513e+00 -1.43463e+01 -2.27989e-01
       H  4.35168e+00 -1.25640e+01 -2.59974e+00
       O  2.94294e-01 -5.18980e+00 -7.82487e-01
       H  2.96032e-01 -6.98663e+00 -2.28053e-01
       H  1.02602e-01 -5.20427e+00 -2.59977e+00
       O  3.97042e+00 -1.21415e+01 -6.25517e+00
       H  2.45414e+00 -1.11359e+01 -6.58198e+00
       H  5.43747e+00 -1.11128e+01 -6.71526e+00
       O -2.78672e-01 -4.78194e+00 -6.25508e+00
       H -1.79498e+00 -3.77636e+00 -6.58199e+00
       H  1.18837e+00 -3.75320e+00 -6.71514e+00
       O -2.94511e-01 -9.52920e+00 -7.70081e+00
       H -1.02600e-01 -9.51466e+00 -9.51806e+00
       H -2.96005e-01 -7.73240e+00 -7.14625e+00
       O  3.95462e+00 -2.16972e+00 -7.70080e+00
       H  4.14654e+00 -2.15521e+00 -9.51804e+00
       H  3.95318e+00 -3.72879e-01 -7.14628e+00
       O  2.78541e-01 -9.93701e+00  6.63104e-01
       H -1.18842e+00 -1.09658e+01  2.03011e-01
       H  1.79493e+00 -1.09425e+01  3.36333e-01
       O  4.52773e+00 -2.57757e+00  6.63187e-01
       H  3.06068e+00 -3.60633e+00  2.03125e-01
       H  6.04402e+00 -3.58308e+00  3.36357e-01
       O  4.54332e+00 -1.25494e+01  1.30541e+01
       H  4.54518e+00 -1.43462e+01  1.36086e+01
       H  4.35169e+00 -1.25640e+01  1.12368e+01
       O  2.94281e-01 -5.18991e+00  1.30541e+01
       H  2.95995e-01 -6.98675e+00  1.36085e+01
       H  1.02570e-01 -5.20435e+00  1.12368e+01
       O  3.97044e+00 -1.21415e+01  7.58145e+00
       H  2.45413e+00 -1.11360e+01  7.25466e+00
       H  5.43745e+00 -1.11128e+01  7.12135e+00
       O -2.78601e-01 -4.78191e+00  7.58148e+00
       H -1.79495e+00 -3.77634e+00  7.25458e+00
       H  1.18839e+00 -3.75323e+00  7.12138e+00
       O -2.94501e-01 -9.52922e+00  6.13582e+00
       H -1.02637e-01 -9.51466e+00  4.31854e+00
       H -2.96013e-01 -7.73241e+00  6.69035e+00
       O  3.95462e+00 -2.16967e+00  6.13570e+00
       H  4.14656e+00 -2.15516e+00  4.31844e+00
       H  3.95315e+00 -3.72836e-01  6.69024e+00
       O  2.78636e-01  4.78206e+00 -1.31735e+01
       H -1.18832e+00  3.75329e+00 -1.36335e+01
       H  1.79499e+00  3.77651e+00 -1.35003e+01
       O  4.52773e+00  1.21415e+01 -1.31733e+01
       H  3.06066e+00  1.11127e+01 -1.36334e+01
       H  6.04403e+00  1.11360e+01 -1.35003e+01
       O  4.54332e+00  2.16970e+00 -7.82499e-01
       H  4.54510e+00  3.72872e-01 -2.27973e-01
       H  4.35161e+00  2.15513e+00 -2.59979e+00
       O  2.94188e-01  9.52923e+00 -7.82517e-01
       H  2.95976e-01  7.73239e+00 -2.28033e-01
       H  1.02486e-01  9.51470e+00 -2.59980e+00
       O  3.97041e+00  2.57752e+00 -6.25508e+00
       H  2.45414e+00  3.58307e+00 -6.58188e+00
       H  5.43747e+00  3.60626e+00 -6.71516e+00
       O -2.78677e-01  9.93714e+00 -6.25506e+00
       H -1.79497e+00  1.09427e+01 -6.58203e+00
       H  1.18838e+00  1.09659e+01 -6.71517e+00
       O -2.94451e-01  5.18990e+00 -7.70074e+00
       H -1.02475e-01  5.20442e+00 -9.51799e+00
       H -2.95971e-01  6.98671e+00 -7.14623e+00
       O  3.95453e+00  1.25494e+01 -7.70088e+00
       H  4.14650e+00  1.25638e+01 -9.51813e+00
       H  3.95314e+00  1.43462e+01 -7.14638e+00
       O  2.78666e-01  4.78190e+00  6.63181e-01
       H -1.18838e+00  3.75314e+00  2.03219e-01
       H  1.79499e+00  3.77637e+00  3.36305e-01
       O  4.52768e+00  1.21415e+01  6.63233e-01
       H  3.06065e+00  1.11127e+01  2.03130e-01
       H  6.04402e+00  1.11359e+01  3.36318e-01
       O  4.54337e+00  2.16963e+00  1.30541e+01
       H  4.54515e+00  3.72778e-01  1.36085e+01
       H  4.35165e+00  2.15511e+00  1.12368e+01
       O  2.94139e-01  9.52935e+00  1.30540e+01
       H  2.96028e-01  7.73252e+00  1.36085e+01
       H  1.02508e-01  9.51480e+00  1.12368e+01
       O  3.97044e+00  2.57752e+00  7.58146e+00
       H  2.45409e+00  3.58312e+00  7.25468e+00
       H  5.43745e+00  3.60627e+00  7.12136e+00
       O -2.78642e-01  9.93713e+00  7.58156e+00
       H -1.79498e+00  1.09426e+01  7.25459e+00
       H  1.18834e+00  1.09658e+01  7.12145e+00
       O -2.94462e-01  5.18993e+00  6.13575e+00
       H -1.02485e-01  5.20444e+00  4.31854e+00
       H -2.95928e-01  6.98677e+00  6.69031e+00
       O  3.95461e+00  1.25493e+01  6.13580e+00
       H  4.14651e+00  1.25638e+01  4.31854e+00
       H  3.95313e+00  1.43462e+01  6.69028e+00
192
# CELL(abcABC):   16.99620    29.43815    27.67315    90.00000    90.00000    90.00000  Step:          10  Bead:      26 positions{atomic_unit}  cell{atomic_unit}
       O -8.20424e+00 -9.99175e+00 -1.31332e+01
       H  7.17252e+00 -1.11502e+01 -1.34677e+01
       H -6.63498e+00 -1.09954e+01 -1.34899e+01
       O -3.91332e+00 -2.53791e+00 -1.31332e+01
       H -5.24034e+00 -3.51555e+00 -1.35957e+01
       H -2.41136e+00 -3.52430e+00 -1.35507e+01
       O -3.96514e+00 -1.25044e+01 -8.29297e-01
       H -3.93465e+00 -1.44258e+01 -2.17326e-01
       H -4.22467e+00 -1.23546e+01 -2.48218e+00
       O -8.26978e+00 -5.23251e+00 -7.80811e-01
       H -8.22415e+00 -6.98912e+00 -3.33072e-01
       H -8.45442e+00 -5.20991e+00 -2.55632e+00
       O -4.51602e+00 -1.21285e+01 -6.23626e+00
       H -6.04773e+00 -1.10909e+01 -6.62429e+00
       H -3.00629e+00 -1.11818e+01 -6.86052e+00
       O  8.21826e+00 -4.78368e+00 -6.26279e+00
       H  6.77855e+00 -3.82478e+00 -6.57261e+00
       H -7.30898e+00 -3.68392e+00 -6.83101e+00
       O  8.17866e+00 -9.52434e+00 -7.69023e+00
       H  8.35125e+00 -9.58828e+00 -9.48267e+00
       H  8.14354e+00 -7.82685e+00 -7.17866e+00
       O -4.52245e+00 -2.15872e+00 -7.71032e+00
       H -4.30729e+00 -2.15556e+00 -9.38529e+00
       H -4.63357e+00 -4.27695e-01 -6.94925e+00
       O -8.22106e+00 -9.92393e+00  6.59373e-01
       H  7.20699e+00 -1.11184e+01  1.31698e-01
       H -6.60149e+00 -1.08988e+01  3.10042e-01
       O -3.93356e+00 -2.58375e+00  7.19730e-01
       H -5.34156e+00 -3.63651e+00  1.40003e-01
       H -2.38703e+00 -3.61815e+00  4.51504e-01
       O -3.95851e+00 -1.25730e+01  1.30920e+01
       H -3.97401e+00 -1.44479e+01  1.35982e+01
       H -4.21579e+00 -1.26208e+01  1.12297e+01
       O -8.20848e+00 -5.17333e+00  1.30514e+01
       H -8.19084e+00 -7.09354e+00  1.35267e+01
       H -8.41003e+00 -5.01931e+00  1.12788e+01
       O -4.53889e+00 -1.21851e+01  7.60690e+00
       H -5.97809e+00 -1.11694e+01  7.13245e+00
       H -3.15111e+00 -1.08293e+01  6.99147e+00
       O  8.22993e+00 -4.83098e+00  7.58063e+00
       H  6.82644e+00 -3.58964e+00  7.26485e+00
       H -7.17663e+00 -3.80962e+00  7.10454e+00
       O  8.23555e+00 -9.57601e+00  6.14564e+00
       H  8.35239e+00 -9.53481e+00  4.41073e+00
       H  8.17210e+00 -7.68131e+00  6.71324e+00
       O -4.58044e+00 -2.22976e+00  6.15464e+00
       H -4.23111e+00 -2.14620e+00  4.30315e+00
       H -4.64662e+00 -4.45353e-01  6.75533e+00
       O -8.24070e+00  4.79433e+00 -1.31755e+01
       H  7.20056e+00  3.71685e+00 -1.36183e+01
       H -6.56186e+00  3.71504e+00 -1.36484e+01
       O -3.93732e+00  1.21051e+01 -1.31378e+01
       H -5.45362e+00  1.10450e+01 -1.35829e+01
       H -2.38021e+00  1.12408e+01 -1.34603e+01
       O -3.93199e+00  2.13660e+00 -7.97849e-01
       H -4.12002e+00  4.37249e-01 -3.09218e-01
       H -4.08933e+00  2.06398e+00 -2.69333e+00
       O -8.18081e+00  9.55700e+00 -8.06467e-01
       H -8.07184e+00  7.92430e+00 -1.73605e-01
       H -8.50210e+00  9.64327e+00 -2.55102e+00
       O -4.54594e+00  2.57213e+00 -6.29676e+00
       H -6.12176e+00  3.65502e+00 -6.63561e+00
       H -2.96403e+00  3.58509e+00 -6.84696e+00
       O  8.19288e+00  9.90288e+00 -6.24918e+00
       H  6.62349e+00  1.06419e+01 -6.60314e+00
       H -7.31450e+00  1.08823e+01 -6.75404e+00
       O  8.22624e+00  5.19544e+00 -7.73912e+00
       H  8.48233e+00  5.05718e+00 -9.65744e+00
       H  8.06188e+00  6.95622e+00 -7.02544e+00
       O -4.56210e+00  1.25883e+01 -7.67503e+00
       H -4.38047e+00  1.25742e+01 -9.56525e+00
       H -4.57039e+00  1.43521e+01 -7.04752e+00
       O -8.21461e+00  4.80547e+00  6.65318e-01
       H  7.38523e+00  3.80691e+00  2.38694e-01
       H -6.72128e+00  3.82228e+00  3.09953e-01
       O -3.99186e+00  1.21385e+01  6.69817e-01
       H -5.56285e+00  1.10798e+01  2.77670e-01
       H -2.58591e+00  1.11164e+01  3.20264e-01
       O -3.93348e+00  2.18932e+00  1.30753e+01
       H -3.86433e+00  4.25975e-01  1.36104e+01
       H -4.26166e+00  2.23174e+00  1.12766e+01
       O -8.23099e+00  9.51628e+00  1.30562e+01
       H -8.27226e+00  7.77038e+00  1.36013e+01
       H -8.37153e+00  9.49343e+00  1.13085e+01
       O -4.53501e+00  2.59138e+00  7.55780e+00
       H -6.09768e+00  3.43826e+00  7.43235e+00
       H -3.08473e+00  3.75749e+00  7.23377e+00
       O  8.24180e+00  9.93431e+00  7.59297e+00
       H  6.87080e+00  1.10881e+01  7.32170e+00
       H -7.38395e+00  1.08307e+01  6.99821e+00
       O  8.17254e+00  5.22290e+00  6.12141e+00
       H  8.37843e+00  5.09994e+00  4.13258e+00
       H  8.20058e+00  7.01315e+00  6.66664e+00
       O -4.56173e+00  1.25884e+01  6.15443e+00
       H -4.39086e+00  1.26390e+01  4.31895e+00
       H -4.63552e+00  1.43731e+01  6.79320e+00
       O  2.74541e-01 -9.92758e+00 -1.32263e+01
       H -1.28650e+00 -1.09512e+01 -1.34204e+01
       H  1.80084e+00 -1.10294e+01 -1.35169e+01
       O  4.51603e+00 -2.58699e+00 -1.31902e+01
       H  3.14761e+00 -3.56488e+00 -1.36603e+01
       H  6.02960e+00 -3.58781e+00 -1.35111e+01
       O  4.56915e+00 -1.25828e+01 -7.76648e-01
       H  4.49418e+00 -1.44346e+01 -1.33040e-01
       H  4.31732e+00 -1.24984e+01 -2.52367e+00
       O  2.95365e-01 -5.21505e+00 -7.69743e-01
       H  3.38046e-01 -7.07703e+00 -2.76231e-01
       H  1.78125e-02 -5.16337e+00 -2.51508e+00
       O  4.01304e+00 -1.21485e+01 -6.24918e+00
       H  2.32614e+00 -1.11571e+01 -6.62302e+00
       H  5.38317e+00 -1.11082e+01 -6.64999e+00
       O -3.02318e-01 -4.78566e+00 -6.23974e+00
       H -1.94268e+00 -3.76184e+00 -6.72296e+00
       H  1.39460e+00 -3.55234e+00 -6.55249e+00
       O -2.74627e-01 -9.51635e+00 -7.71525e+00
       H -1.84615e-01 -9.38825e+00 -9.57161e+00
       H -2.46962e-01 -7.72552e+00 -7.22703e+00
       O  3.98118e+00 -2.14422e+00 -7.67597e+00
       H  4.15242e+00 -2.27340e+00 -9.45216e+00
       H  4.13371e+00 -4.43656e-01 -7.05524e+00
       O  2.48065e-01 -9.89823e+00  6.64122e-01
       H -1.28701e+00 -1.08625e+01  1.62918e-01
       H  1.71437e+00 -1.08987e+01  4.54725e-01
       O  4.54040e+00 -2.60442e+00  6.41810e-01
       H  3.12930e+00 -3.36392e+00  3.25083e-01
       H  5.97551e+00 -3.57448e+00  3.28139e-01
       O  4.56481e+00 -1.25685e+01  1.31045e+01
       H  4.49156e+00 -1.43522e+01  1.34001e+01
       H  4.38285e+00 -1.23901e+01  1.13101e+01
       O  3.00034e-01 -5.18246e+00  1.31067e+01
       H  3.26876e-01 -7.05298e+00  1.35893e+01
       H  1.19587e-01 -5.21620e+00  1.13147e+01
       O  3.96435e+00 -1.21600e+01  7.58874e+00
       H  2.41439e+00 -1.10948e+01  7.12360e+00
       H  5.32146e+00 -1.11430e+01  7.17988e+00
       O -3.00813e-01 -4.79534e+00  7.58412e+00
       H -1.71179e+00 -3.73783e+00  7.23667e+00
       H  1.18600e+00 -3.65561e+00  7.20863e+00
       O -2.89070e-01 -9.55444e+00  6.13248e+00
       H -8.02899e-02 -9.49743e+00  4.19469e+00
       H -3.37506e-01 -7.68869e+00  6.73953e+00
       O  3.96044e+00 -2.19761e+00  6.14946e+00
       H  4.14416e+00 -2.28719e+00  4.18728e+00
       H  4.01670e+00 -4.07722e-01  6.71295e+00
       O  2.55685e-01  4.77354e+00 -1.30925e+01
       H -1.07396e+00  3.88469e+00 -1.36047e+01
       H  1.74295e+00  3.80742e+00 -1.34693e+01
       O  4.51591e+00  1.21919e+01 -1.32015e+01
       H  3.00413e+00  1.12419e+01 -1.36961e+01
       H  5.83206e+00  1.11482e+01 -1.34425e+01
       O  4.53995e+00  2.18096e+00 -7.90063e-01
       H  4.36526e+00  3.37008e-01 -3.89549e-01
       H  4.56554e+00  2.10809e+00 -2.50259e+00
       O  3.09869e-01  9.52419e+00 -7.71189e-01
       H  2.81005e-01  7.70098e+00 -1.66763e-01
       H  1.13989e-01  9.58607e+00 -2.64735e+00
       O  3.96517e+00  2.59151e+00 -6.25729e+00
       H  2.40925e+00  3.57147e+00 -6.62441e+00
       H  5.55451e+00  3.69272e+00 -6.68546e+00
       O -2.50878e-01  9.92610e+00 -6.22974e+00
       H -1.91424e+00  1.10574e+01 -6.48045e+00
       H  1.19634e+00  1.09967e+01 -6.53120e+00
       O -2.91078e-01  5.17606e+00 -7.68715e+00
       H -5.02666e-02  5.19250e+00 -9.59303e+00
       H -4.00794e-01  6.90717e+00 -7.26256e+00
       O  3.97753e+00  1.25885e+01 -7.71777e+00
       H  4.09134e+00  1.26146e+01 -9.38806e+00
       H  3.89137e+00  1.43331e+01 -6.92269e+00
       O  2.87309e-01  4.78265e+00  6.63033e-01
       H -1.01674e+00  3.62967e+00  2.59590e-01
       H  1.80717e+00  3.68505e+00  2.70181e-01
       O  4.57457e+00  1.21075e+01  6.53310e-01
       H  3.13536e+00  1.11084e+01  1.59212e-01
       H  5.95194e+00  1.10926e+01  1.45082e-01
       O  4.54704e+00  2.20317e+00  1.30878e+01
       H  4.52825e+00  3.54836e-01  1.36105e+01
       H  4.42420e+00  2.35451e+00  1.11839e+01
       O  2.48697e-01  9.52611e+00  1.30447e+01
       H  5.24311e-01  7.90244e+00  1.36812e+01
       H  7.14866e-02  9.64068e+00  1.12960e+01
       O  4.02952e+00  2.56839e+00  7.57256e+00
       H  2.43919e+00  3.56926e+00  7.39586e+00
       H  5.16692e+00  3.61408e+00  7.12592e+00
       O -2.79322e-01  9.95600e+00  7.58306e+00
       H -1.79501e+00  1.10261e+01  7.29749e+00
       H  1.15800e+00  1.10458e+01  6.96650e+00
       O -2.78143e-01  5.19103e+00  6.09841e+00
       H -1.51050e-01  5.16192e+00  4.38562e+00
       H -1.71243e-01  7.10327e+00  6.80515e+00
       O  3.98481e+00  1.25643e+01  6.09975e+00
       H  3.95413e+00  1.27370e+01  4.47245e+00
       H  3.94456e+00  1.43443e+01  6.72285e+00
192
# CELL(abcABC):   16.99620    29.43815    27.67315    90.00000    90.00000    90.00000  Step:          20  Bead:      26 positions{atomic_unit}  cell{atomic_unit}
       O -8.21479e+00 -9.94887e+00 -1.31665e+01
       H  7.20652e+00 -1.10998e+01 -1.33282e+01
       H -6.72447e+00 -1.08519e+01 -1.34178e+01
       O -3.93647e+00 -2.55178e+00 -1.31220e+01
       H -5.28805e+00 -3.61251e+00 -1.37894e+01
       H -2.53151e+00 -3.68569e+00 -1.35107e+01
       O -3.95569e+00 -1.25131e+01 -8.42835e-01
       H -3.89485e+00 -1.44039e+01 -3.46206e-01
       H -4.10419e+00 -1.23357e+01 -2.59167e+00
       O -8.29527e+00 -5.24385e+00 -7.82079e-01
       H -8.11004e+00 -7.07345e+00 -2.95155e-01
       H -8.36914e+00 -5.14862e+00 -2.59541e+00
       O -4.53366e+00 -1.21317e+01 -6.24753e+00
       H -5.93071e+00 -1.10975e+01 -6.64996e+00
       H -3.05891e+00 -1.12111e+01 -6.75462e+00
       O  8.21779e+00 -4.74126e+00 -6.28904e+00
       H  6.83090e+00 -3.85008e+00 -6.42746e+00
       H -7.32656e+00 -3.57511e+00 -6.79849e+00
       O  8.18368e+00 -9.46909e+00 -7.68385e+00
       H  8.31792e+00 -9.74533e+00 -9.52708e+00
       H  7.89841e+00 -7.82116e+00 -7.24174e+00
       O -4.52059e+00 -2.16248e+00 -7.65939e+00
       H -4.46213e+00 -2.12102e+00 -9.43962e+00
       H -4.69547e+00 -5.55340e-01 -6.76248e+00
       O -8.20513e+00 -9.92560e+00  6.66999e-01
       H  7.23985e+00 -1.10693e+01  2.03195e-01
       H -6.58531e+00 -1.09094e+01  3.08845e-01
       O -3.94325e+00 -2.57986e+00  7.60690e-01
       H -5.37862e+00 -3.69978e+00  4.41831e-02
       H -2.42961e+00 -3.52984e+00  5.07947e-01
       O -3.97481e+00 -1.25488e+01  1.30430e+01
       H -4.08663e+00 -1.43499e+01  1.36283e+01
       H -4.15164e+00 -1.25296e+01  1.12971e+01
       O -8.18091e+00 -5.19556e+00  1.30590e+01
       H -8.25650e+00 -7.19572e+00  1.34257e+01
       H -8.37055e+00 -4.88812e+00  1.13260e+01
       O -4.55831e+00 -1.21901e+01  7.57121e+00
       H -6.06808e+00 -1.11333e+01  7.09593e+00
       H -3.30588e+00 -1.07467e+01  6.98352e+00
       O  8.19529e+00 -4.83072e+00  7.60327e+00
       H  6.76603e+00 -3.55224e+00  7.38081e+00
       H -7.13317e+00 -3.76694e+00  7.19176e+00
       O  8.23815e+00 -9.55609e+00  6.17352e+00
       H  8.40511e+00 -9.54788e+00  4.49957e+00
       H  8.18266e+00 -7.67835e+00  6.76737e+00
       O -4.58794e+00 -2.24557e+00  6.18415e+00
       H -4.40661e+00 -2.03557e+00  4.30740e+00
       H -4.61955e+00 -3.81325e-01  6.76226e+00
       O -8.24716e+00  4.76943e+00 -1.31579e+01
       H  7.00801e+00  3.78480e+00 -1.35912e+01
       H -6.54444e+00  3.87965e+00 -1.36718e+01
       O -3.93907e+00  1.21279e+01 -1.31705e+01
       H -5.62016e+00  1.09334e+01 -1.36355e+01
       H -2.34154e+00  1.10903e+01 -1.35483e+01
       O -3.91469e+00  2.14536e+00 -8.02700e-01
       H -4.21923e+00  4.17227e-01 -3.82344e-01
       H -3.88197e+00  1.88866e+00 -2.59778e+00
       O -8.19481e+00  9.50661e+00 -8.09680e-01
       H -7.98039e+00  7.96241e+00 -2.39839e-01
       H -8.53529e+00  9.55498e+00 -2.63155e+00
       O -4.53959e+00  2.58229e+00 -6.27074e+00
       H -5.93554e+00  3.78236e+00 -6.58614e+00
       H -2.96811e+00  3.60775e+00 -6.83572e+00
       O  8.15055e+00  9.90144e+00 -6.23720e+00
       H  6.60604e+00  1.06040e+01 -6.61982e+00
       H -7.29878e+00  1.07835e+01 -6.68437e+00
       O  8.20275e+00  5.23554e+00 -7.71262e+00
       H  8.69125e+00  5.14194e+00 -9.62871e+00
       H  8.03986e+00  6.97901e+00 -7.07299e+00
       O -4.58493e+00  1.25912e+01 -7.67400e+00
       H -4.32375e+00  1.26105e+01 -9.51535e+00
       H -4.49787e+00  1.43451e+01 -6.99137e+00
       O -8.19403e+00  4.79223e+00  6.51138e-01
       H  7.26834e+00  3.73849e+00  3.54802e-01
       H -6.63835e+00  3.72209e+00  3.71771e-01
       O -3.99982e+00  1.21240e+01  6.35207e-01
       H -5.57748e+00  1.11743e+01  1.50073e-01
       H -2.54589e+00  1.10465e+01  2.51320e-01
       O -3.93281e+00  2.19563e+00  1.30735e+01
       H -3.74274e+00  4.00576e-01  1.36611e+01
       H -4.30503e+00  2.40002e+00  1.13554e+01
       O -8.22354e+00  9.52808e+00  1.31214e+01
       H -8.15980e+00  7.57987e+00  1.34634e+01
       H -8.43811e+00  9.39419e+00  1.11882e+01
       O -4.49811e+00  2.57980e+00  7.55761e+00
       H -5.92873e+00  3.43284e+00  7.71375e+00
       H -2.98313e+00  3.77770e+00  7.23495e+00
       O  8.22839e+00  9.96670e+00  7.56321e+00
       H  6.93933e+00  1.11445e+01  7.42302e+00
       H -7.42191e+00  1.08849e+01  7.08034e+00
       O  8.20643e+00  5.25824e+00  6.11528e+00
       H  8.43338e+00  5.05084e+00  4.00355e+00
       H  8.20666e+00  7.04780e+00  6.54955e+00
       O -4.55484e+00  1.25864e+01  6.18555e+00
       H -4.21801e+00  1.24205e+01  4.34390e+00
       H -4.54079e+00  1.43052e+01  6.82357e+00
       O  3.25103e-01 -9.84877e+00 -1.32113e+01
       H -1.25081e+00 -1.08028e+01 -1.32483e+01
       H  1.78829e+00 -1.08403e+01 -1.36040e+01
       O  4.54921e+00 -2.62529e+00 -1.31904e+01
       H  3.19675e+00 -3.51904e+00 -1.36840e+01
       H  5.96409e+00 -3.53624e+00 -1.36683e+01
       O  4.59382e+00 -1.25955e+01 -7.87593e-01
       H  4.58376e+00 -1.42885e+01 -2.32455e-01
       H  4.14193e+00 -1.23375e+01 -2.62296e+00
       O  3.22670e-01 -5.19606e+00 -7.15099e-01
       H  4.25059e-01 -7.14140e+00 -3.81980e-01
       H  6.42218e-02 -5.12873e+00 -2.46218e+00
       O  4.00378e+00 -1.21288e+01 -6.22240e+00
       H  2.30365e+00 -1.13020e+01 -6.59700e+00
       H  5.36946e+00 -1.10940e+01 -6.60594e+00
       O -3.23133e-01 -4.77110e+00 -6.21445e+00
       H -2.07620e+00 -3.88936e+00 -6.77374e+00
       H  1.41314e+00 -3.69552e+00 -6.54391e+00
       O -2.01561e-01 -9.44906e+00 -7.74638e+00
       H -2.31560e-01 -9.21602e+00 -9.51061e+00
       H -2.46130e-01 -7.74644e+00 -7.17516e+00
       O  3.98634e+00 -2.12760e+00 -7.65921e+00
       H  4.11778e+00 -2.33841e+00 -9.51586e+00
       H  4.28863e+00 -3.75178e-01 -7.08219e+00
       O  2.20443e-01 -9.89675e+00  6.29588e-01
       H -1.22936e+00 -1.08203e+01  2.35327e-01
       H  1.82210e+00 -1.07839e+01  5.38045e-01
       O  4.55358e+00 -2.61031e+00  6.36628e-01
       H  3.21847e+00 -3.45832e+00  3.73161e-01
       H  5.94449e+00 -3.73232e+00  3.16089e-01
       O  4.58641e+00 -1.25771e+01  1.31048e+01
       H  4.57229e+00 -1.42391e+01  1.32676e+01
       H  4.36626e+00 -1.22776e+01  1.12627e+01
       O  2.58894e-01 -5.20995e+00  1.31225e+01
       H  2.81063e-01 -7.18646e+00  1.37383e+01
       H -3.54541e-02 -5.18001e+00  1.13767e+01
       O  3.93277e+00 -1.21915e+01  7.57343e+00
       H  2.42211e+00 -1.11349e+01  7.13245e+00
       H  5.24945e+00 -1.11594e+01  7.20115e+00
       O -3.10038e-01 -4.77695e+00  7.57161e+00
       H -1.72771e+00 -3.67945e+00  7.13706e+00
       H  1.24395e+00 -3.72575e+00  7.29251e+00
       O -2.76371e-01 -9.58328e+00  6.11249e+00
       H -1.49428e-01 -9.51507e+00  4.08685e+00
       H -2.39929e-01 -7.69417e+00  6.69772e+00
       O  3.95656e+00 -2.21050e+00  6.14293e+00
       H  4.12951e+00 -2.34708e+00  4.11978e+00
       H  4.04980e+00 -4.27911e-01  6.75106e+00
       O  2.05039e-01  4.79339e+00 -1.30430e+01
       H -1.09985e+00  3.96217e+00 -1.34530e+01
       H  1.73807e+00  3.87213e+00 -1.35255e+01
       O  4.53130e+00  1.22373e+01 -1.32078e+01
       H  3.04481e+00  1.12353e+01 -1.37105e+01
       H  5.96763e+00  1.11587e+01 -1.34164e+01
       O  4.53562e+00  2.17777e+00 -8.24226e-01
       H  4.37972e+00  3.37129e-01 -6.04502e-01
       H  4.60052e+00  2.20747e+00 -2.56272e+00
       O  3.16287e-01  9.58682e+00 -7.57346e-01
       H  1.73338e-01  7.75595e+00 -2.36378e-01
       H  2.31443e-02  9.74893e+00 -2.73672e+00
       O  3.97387e+00  2.56883e+00 -6.26609e+00
       H  2.28205e+00  3.56024e+00 -6.66340e+00
       H  5.50369e+00  3.68942e+00 -6.55645e+00
       O -2.38801e-01  9.92780e+00 -6.22795e+00
       H -1.76871e+00  1.10741e+01 -6.44322e+00
       H  9.55695e-01  1.10081e+01 -6.48934e+00
       O -2.85179e-01  5.18200e+00 -7.71975e+00
       H  8.07400e-02  5.25963e+00 -9.57458e+00
       H -3.65946e-01  6.93637e+00 -7.18800e+00
       O  3.99165e+00  1.25853e+01 -7.69686e+00
       H  4.09645e+00  1.25422e+01 -9.48296e+00
       H  3.81438e+00  1.43816e+01 -7.05073e+00
       O  2.77924e-01  4.79996e+00  6.73372e-01
       H -9.98686e-01  3.63822e+00  1.80174e-01
       H  2.00482e+00  3.79701e+00  2.89852e-01
       O  4.60248e+00  1.20852e+01  6.12147e-01
       H  3.12719e+00  1.10584e+01 -6.97443e-02
       H  6.01999e+00  1.09428e+01  1.52656e-01
       O  4.56001e+00  2.19060e+00  1.30938e+01
       H  4.65094e+00  4.61101e-01  1.35601e+01
       H  4.35253e+00  2.50317e+00  1.12862e+01
       O  2.74385e-01  9.56313e+00  1.30099e+01
       H  5.87109e-01  7.93080e+00  1.37382e+01
       H  1.74595e-01  9.58338e+00  1.12617e+01
       O  3.99042e+00  2.55474e+00  7.57461e+00
       H  2.48431e+00  3.44191e+00  7.37049e+00
       H  4.99993e+00  3.75208e+00  7.18456e+00
       O -2.62711e-01  9.95742e+00  7.54286e+00
       H -1.77376e+00  1.10351e+01  7.27564e+00
       H  1.17865e+00  1.09849e+01  6.97397e+00
       O -2.80060e-01  5.20637e+00  6.10478e+00
       H -1.67121e-01  5.32685e+00  4.41832e+00
       H -1.77027e-02  6.99722e+00  6.70023e+00
       O  4.00077e+00  1.25722e+01  6.10335e+00
       H  3.86006e+00  1.27288e+01  4.40613e+00
       H  3.93290e+00  1.44951e+01  6.64968e+00
192
# CELL(abcABC):   16.99620    29.43815    27.67315    90.00000    90.00000    90.00000  Step:          30  Bead:      26 positions{atomic_unit}  cell{atomic_unit}
       O -8.24383e+00 -9.95897e+00 -1.31558e+01
       H  7.30912e+00 -1.10557e+01 -1.32545e+01
       H -6.85919e+00 -1.06710e+01 -1.35385e+01
       O -3.90497e+00 -2.58863e+00 -1.31023e+01
       H -5.38307e+00 -3.79688e+00 -1.36637e+01
       H -2.64693e+00 -3.61518e+00 -1.33614e+01
       O -3.89388e+00 -1.25293e+01 -8.36892e-01
       H -3.82815e+00 -1.42330e+01 -3.81973e-01
       H -4.14013e+00 -1.25366e+01 -2.59493e+00
       O -8.25757e+00 -5.26361e+00 -7.52274e-01
       H -8.03474e+00 -7.10129e+00 -1.34875e-01
       H -8.28006e+00 -5.18694e+00 -2.42583e+00
       O -4.48708e+00 -1.20741e+01 -6.26863e+00
       H -5.94112e+00 -1.10939e+01 -6.64953e+00
       H -3.09305e+00 -1.12808e+01 -6.56911e+00
       O  8.23466e+00 -4.72534e+00 -6.28352e+00
       H  6.83275e+00 -4.01793e+00 -6.46347e+00
       H -7.43730e+00 -3.55273e+00 -6.97448e+00
       O  8.16108e+00 -9.47839e+00 -7.65038e+00
       H  8.51950e+00 -9.71727e+00 -9.59594e+00
       H  7.86184e+00 -7.66145e+00 -7.07967e+00
       O -4.53557e+00 -2.17033e+00 -7.68027e+00
       H -4.33470e+00 -2.05338e+00 -9.58868e+00
       H -4.84919e+00 -6.70011e-01 -6.61204e+00
       O -8.22083e+00 -9.90134e+00  6.75581e-01
       H  7.42251e+00 -1.10458e+01  1.79097e-01
       H -6.68688e+00 -1.09583e+01  3.24507e-01
       O -3.92352e+00 -2.58733e+00  7.38311e-01
       H -5.44424e+00 -3.64094e+00 -3.39776e-02
       H -2.42515e+00 -3.49112e+00  6.15713e-01
       O -3.96228e+00 -1.25142e+01  1.30209e+01
       H -4.38375e+00 -1.43765e+01  1.35308e+01
       H -4.20153e+00 -1.26257e+01  1.11878e+01
       O -8.18247e+00 -5.17285e+00  1.30825e+01
       H -8.19056e+00 -7.20819e+00  1.34420e+01