192
# CELL(abcABC):   16.99620    29.43815    27.67315    90.00000    90.00000    90.00000  Step:           0  Bead:      12 velocities{atomic_unit}  cell{atomic_unit}
       O -3.55211e-04  1.93907e-04  2.27392e-03
       H  6.64863e-04  5.18305e-03  1.54145e-03
       H  2.49924e-03  1.24260e-03  3.10247e-04
       O -1.25087e-04  7.72624e-04  2.22315e-03
       H -2.41255e-03 -5.48372e-03  1.59274e-03
       H  2.61073e-03  7.05429e-03  4.19256e-03
       O  1.39369e-04 -3.63278e-04  5.28282e-04
       H  1.01582e-03  5.99749e-04  4.39689e-03
       H  2.63703e-03  1.43641e-03 -1.43168e-03
       O  1.96016e-03  1.70081e-03  9.36630e-04
       H -3.40530e-03  1.38595e-03 -3.35670e-03
       H  5.02612e-03  3.79893e-03  9.36518e-04
       O  8.15852e-04 -2.77196e-04 -7.55655e-05
       H -2.75860e-03  1.94068e-03  1.10836e-03
       H  3.22594e-03  2.22912e-03  5.40845e-03
       O  3.22541e-04  2.06122e-07 -8.24160e-04
       H  2.02445e-03 -5.75975e-04 -1.10848e-03
       H -2.66078e-04  3.13816e-03  5.66674e-03
       O  8.79426e-05  4.21994e-05  5.45443e-04
       H  1.19656e-04  6.11906e-03  9.97777e-05
       H  1.23638e-03 -3.50974e-03  4.49523e-03
       O  4.15322e-04 -3.35330e-04  5.20490e-04
       H -2.72985e-03 -4.21539e-04 -2.78776e-03
       H  2.01424e-04 -5.80072e-04  2.99230e-03
       O  2.25426e-04  7.92746e-04 -1.37534e-03
       H  2.41220e-03 -5.78746e-03  1.95223e-03
       H -5.65906e-03  3.85090e-04 -2.46684e-03
       O  1.90178e-03 -1.81647e-03  4.31227e-04
       H -3.26850e-03  5.13638e-04  1.23239e-03
       H -2.96338e-03 -2.67676e-03  4.27633e-03
       O -1.12558e-03 -1.92076e-04  8.40999e-04
       H  5.05233e-03  3.69450e-03  1.54610e-03
       H -3.04536e-03 -2.84061e-03 -2.29558e-04
       O -1.85549e-03 -3.35312e-04 -6.81752e-04
       H -7.17852e-03 -4.59413e-03  4.13326e-04
       H  1.09531e-03  6.28781e-04 -6.24821e-04
       O  8.57070e-04 -1.61683e-03  6.00742e-04
       H -3.98593e-03 -2.63694e-03 -9.99760e-04
       H -1.87460e-03  8.39266e-04  2.13351e-04
       O  8.75059e-04  6.46876e-04  8.07629e-05
       H -3.35762e-03  5.15360e-03 -4.11181e-04
       H -1.85618e-04 -8.82386e-03  6.73082e-04
       O  1.06807e-03  1.09697e-03  4.21023e-04
       H -4.02798e-03 -4.58489e-03  7.75655e-04
       H -1.65876e-03 -1.12466e-04 -3.57031e-03
       O  1.84787e-04  1.05963e-03  1.05079e-03
       H -4.79429e-04 -2.77644e-03 -1.77970e-04
       H  1.16141e-03  2.42891e-03 -3.36711e-03
       O -7.39877e-04 -7.83593e-04 -1.44599e-03
       H  3.97312e-03  1.55453e-03  6.45157e-03
       H  3.56500e-03 -2.59658e-03  4.95103e-03
       O  5.96977e-05  2.98395e-04 -1.79701e-03
       H  4.83872e-03 -4.65004e-03 -2.94836e-03
       H  1.04972e-03  2.08785e-03  5.90137e-04
       O -1.25869e-03  3.24042e-04 -5.49709e-04
       H -6.19379e-03 -1.81548e-03 -4.03878e-04
       H  1.34990e-03  6.27097e-03  4.27651e-03
       O -8.59105e-04 -2.16722e-04  1.69088e-03
       H  3.08957e-03 -2.30771e-03  4.01169e-03
       H  4.21461e-03 -2.56729e-04 -2.71291e-03
       O -1.93917e-04 -1.13783e-03  4.21086e-04
       H -3.23975e-03 -2.51385e-03  2.23467e-03
       H  1.04566e-03  2.33883e-03 -2.20596e-03
       O  1.12084e-04 -3.71579e-05  7.11045e-04
       H -3.24051e-03 -2.56365e-03  3.19344e-03
       H  1.83552e-03 -3.15221e-03  5.04881e-03
       O -5.11872e-04  1.06038e-03  2.01646e-03
       H  5.15947e-03  3.20660e-03  2.42337e-03
       H  2.57639e-03  1.64971e-03  4.92188e-03
       O  1.34665e-04 -6.77110e-04 -1.44233e-03
       H -8.84476e-03  1.25454e-03 -1.14298e-03
       H  1.67236e-04 -3.05693e-03 -4.96163e-03
       O  4.66900e-04  1.78125e-03 -2.36199e-03
       H -7.33632e-04  2.06551e-03  2.67334e-03
       H -4.07080e-04 -1.90207e-03  6.80466e-03
       O -3.29706e-04  2.98780e-04 -1.86861e-03
       H  1.39445e-03  4.87092e-03 -5.82102e-03
       H  1.14463e-03 -7.96188e-04  7.61755e-03
       O  2.71732e-05 -6.06052e-04  1.10258e-03
       H -2.89132e-03  5.31867e-03 -8.11744e-04
       H  3.71401e-03 -7.13339e-03 -2.09843e-03
       O -2.78056e-04 -7.30729e-05 -5.53161e-04
       H -4.99438e-03  1.20853e-03 -6.47825e-03
       H  2.10802e-03  4.24386e-03  3.17516e-03
       O -1.32233e-03 -1.22510e-03 -7.68876e-04
       H -8.20627e-04 -3.22353e-03  8.08352e-03
       H -1.89970e-03  3.25724e-03  6.16620e-03
       O -2.06547e-03 -8.70182e-04  6.16217e-04
       H -1.18677e-03  3.63539e-03  9.03669e-04
       H -3.38190e-03  7.18813e-04  3.16546e-03
       O  1.63592e-03 -2.63691e-06 -1.30330e-03
       H  9.06098e-04  2.49026e-03  5.35897e-04
       H  1.07183e-02  6.16402e-04  3.70340e-03
       O  5.60274e-04  9.48148e-04  6.78617e-04
       H  3.45477e-03 -2.43458e-03 -3.77794e-03
       H  5.85687e-03  1.74011e-03  3.62286e-03
       O  2.27501e-03 -9.47492e-04  3.89780e-04
       H -1.05775e-02 -1.60960e-03  3.72524e-03
       H -2.54602e-03 -1.60643e-03 -5.27248e-03
       O  2.08988e-04  2.54101e-03 -8.91449e-04
       H -5.44094e-03  9.17865e-03 -4.89278e-03
       H -6.21603e-04 -7.27284e-03  8.98713e-04
       O  7.60194e-04 -4.97088e-04  1.41270e-03
       H -3.57086e-03  7.82824e-03  5.50793e-04
       H  5.59307e-03  7.29054e-04 -3.85137e-03
       O  4.90757e-04  8.25205e-04  6.53450e-04
       H -2.99237e-03 -8.09048e-03  7.97690e-04
       H  5.00982e-04  2.13672e-03 -4.35111e-03
       O  1.36335e-03  3.48467e-04  5.94354e-05
       H -7.37474e-03  5.42427e-03 -6.52089e-03
       H  5.07990e-03 -6.57653e-05 -3.00504e-03
       O  4.03993e-04 -5.46288e-04  4.71234e-04
       H -2.59324e-03 -1.54676e-03 -1.91760e-03
       H  4.26953e-03  6.94430e-03 -9.28050e-04
       O  1.10607e-03 -4.31899e-04  1.18542e-05
       H -3.61776e-05 -1.97473e-03 -2.09503e-05
       H  5.73551e-03  1.71653e-03 -1.29130e-03
       O  6.01429e-04 -4.57530e-05 -1.18699e-03
       H -3.03777e-04 -1.28589e-03 -3.94255e-03
       H  4.88751e-03 -2.70842e-03  2.30811e-03
       O  1.22241e-03  1.82202e-05 -2.80372e-04
       H -2.14504e-03 -7.30205e-03  3.84257e-03
       H -5.55386e-03 -9.89089e-04 -2.08342e-03
       O  1.56710e-04 -1.58095e-03 -1.35455e-04
       H  1.30663e-03 -8.68502e-04  8.35884e-03
       H -3.21074e-03  4.57640e-04 -2.98813e-03
       O  1.45896e-04 -6.21995e-04 -1.33055e-04
       H  5.36107e-04 -7.13502e-03 -7.32356e-03
       H -3.82423e-04 -2.37514e-03  9.35052e-03
       O -1.88358e-03  3.94214e-04 -1.02632e-03
       H  1.46821e-03  5.80865e-03 -1.72177e-03
       H  2.95499e-03  5.26281e-03  2.84875e-03
       O -1.12513e-03  3.81261e-04 -7.98578e-04
       H -3.01181e-03  9.03373e-04  5.73511e-03
       H  2.22790e-03 -1.07990e-03 -3.57477e-03
       O -5.34679e-04  9.93763e-04  4.96200e-04
       H -3.55771e-03  7.99983e-03  1.16604e-02
       H -1.89928e-03  2.71022e-03  1.38797e-03
       O  1.25456e-03 -9.44965e-05  2.22795e-04
       H -1.02753e-03  1.15345e-03 -1.78641e-03
       H  2.75401e-03  1.33357e-03  5.91589e-03
       O -2.65561e-04 -1.17539e-03 -8.11997e-04
       H  1.35046e-03  8.93255e-03  8.11210e-04
       H  1.07854e-03  1.70427e-03 -6.00271e-04
       O  1.58339e-03 -3.64681e-04 -2.20117e-05
       H  2.35078e-03  9.00001e-04  4.40842e-03
       H -3.93443e-03  1.20303e-02  2.11537e-03
       O  1.23040e-03 -6.74301e-04 -3.22129e-04
       H -1.26121e-03  4.78128e-03 -2.72782e-03
       H -5.23561e-03  5.75553e-03 -1.04843e-03
       O  8.50558e-04  2.11668e-04  4.91346e-04
       H  3.25835e-03 -3.06309e-03  2.61866e-03
       H  4.58515e-04 -5.32751e-03 -1.55137e-03
       O -1.17000e-03  3.05877e-04 -3.58321e-04
       H -5.53623e-03  7.11482e-04  1.03328e-03
       H  2.32538e-04 -6.08308e-03 -3.41921e-04
       O  7.21432e-04 -2.10281e-03  1.47805e-03
       H  2.65449e-03 -1.03653e-03 -3.02943e-03
       H  4.17493e-03 -4.70746e-03  4.21689e-03
       O  4.32626e-04  1.03739e-03 -2.51402e-04
       H  2.65853e-03  2.84321e-04 -1.57101e-03
       H -6.65147e-03  6.60692e-03 -2.25666e-03
       O  1.31015e-03  3.36674e-04  1.02695e-03
       H -7.43177e-03 -3.78505e-03 -5.93378e-04
       H -2.88628e-03  2.70078e-03  1.04158e-03
       O -8.38842e-04  5.83920e-04  2.13840e-03
       H -4.43416e-03 -4.14356e-03 -4.85251e-03
       H  5.29852e-03  7.65134e-04 -3.89214e-03
       O -8.37521e-04 -7.48920e-04  8.52996e-05
       H  1.27392e-03 -8.91420e-03  2.89495e-04
       H -1.62673e-03  1.97969e-03 -8.12388e-03
       O -1.23380e-03  8.93840e-04  3.14365e-04
       H  7.94470e-04  5.99903e-04 -7.06964e-03
       H -4.95137e-03 -6.62238e-05  9.25872e-04
       O  1.24255e-03  4.91346e-04 -1.25733e-03
       H -1.81527e-03 -6.07329e-03 -1.68791e-03
       H -1.01378e-03 -4.79591e-03  3.50887e-03
       O -7.09668e-04  4.59530e-04 -5.35658e-04
       H  2.33144e-04 -2.42790e-03 -3.14955e-03
       H -2.82412e-04 -5.71453e-04 -6.43064e-03
       O  5.26183e-04  1.03169e-03 -7.35961e-04
       H  6.44508e-03 -1.30609e-04 -1.28965e-03
       H  5.29686e-04 -2.09041e-03  2.70367e-03
       O -5.15773e-04 -1.64218e-03 -1.70449e-03
       H -2.39656e-03  2.58103e-03  2.16060e-03
       H  2.01816e-03 -2.07375e-03 -3.92645e-03
       O  9.27062e-04  1.81798e-03 -1.12489e-04
       H -2.01932e-03 -2.52653e-03 -6.29925e-03
       H  1.45111e-03  5.28461e-04 -1.82228e-03
       O -2.25554e-04  8.40479e-04  2.02140e-04
       H -6.32461e-03  4.01231e-03  4.00939e-03
       H -5.01447e-03  3.47830e-03  1.12162e-02
192
# CELL(abcABC):   16.99620    29.43815    27.67315    90.00000    90.00000    90.00000  Step:          10  Bead:      12 velocities{atomic_unit}  cell{atomic_unit}
       O  5.03684e-04 -7.84424e-05 -3.83738e-04
       H -5.75772e-04  1.63121e-03 -5.55241e-04
       H  2.09552e-03 -2.62453e-03  8.04832e-04
       O -7.15306e-04 -3.20199e-05 -7.16820e-05
       H -1.82694e-03 -2.27423e-03  3.58555e-03
       H -2.51969e-04 -4.18193e-03 -2.32916e-03
       O -1.10796e-03 -9.24597e-05  3.67819e-04
       H  1.95552e-03  2.30266e-03 -1.67294e-03
       H -6.27671e-03 -5.46572e-03 -7.33930e-04
       O -7.67463e-05 -2.91352e-04  4.37727e-04
       H  4.56396e-05 -8.70920e-04 -3.82301e-03
       H -3.56576e-03  4.36165e-03 -2.45873e-03
       O  1.26998e-03 -7.14542e-04 -1.02192e-03
       H -1.73553e-04  3.41187e-03  1.83518e-03
       H  4.39906e-03  6.38893e-04  4.51473e-04
       O  1.24630e-04 -1.67389e-03  7.06992e-04
       H -8.55492e-04 -3.14982e-03 -2.55491e-03
       H  5.24963e-03 -2.11769e-04  1.27249e-03
       O  7.81646e-04  1.80936e-03  1.18533e-03
       H -4.27557e-03  3.83556e-03 -4.62421e-03
       H -5.42356e-03  4.98575e-03 -4.44217e-03
       O  1.61689e-05  9.71133e-04 -2.69821e-04
       H  8.33182e-03  1.48321e-04  2.77968e-03
       H  3.17898e-03 -2.77009e-03 -5.56999e-03
       O  7.09001e-04  6.50185e-04  8.94520e-05
       H -2.67355e-03  3.94105e-05 -7.31031e-03
       H  1.70562e-03 -1.19879e-03 -3.71506e-03
       O  6.83372e-04 -1.15487e-03  1.29742e-03
       H -3.11058e-03 -2.05905e-03 -1.41992e-03
       H -1.85879e-03 -1.30818e-03 -9.71031e-04
       O -3.95853e-04  6.42214e-04  2.00144e-04
       H -7.86767e-04 -3.79263e-03  1.76930e-03
       H  5.70700e-03 -3.88445e-03  5.12458e-04
       O  1.49876e-03  1.35424e-03  1.24936e-03
       H  8.29517e-03  5.71303e-03  5.12955e-04
       H -3.11028e-03 -8.63277e-04 -3.15164e-04
       O  1.72219e-03  2.06587e-04  1.25585e-03
       H -2.89377e-03 -2.41928e-03  1.89520e-03
       H -4.28335e-03  4.10282e-03  1.93139e-03
       O -1.37367e-03  6.05132e-04 -3.45362e-04
       H  7.73322e-04 -1.66528e-03 -1.24417e-03
       H -1.59417e-03 -1.52322e-03 -1.33450e-03
       O  1.14982e-03 -2.96612e-04 -1.18192e-03
       H -2.13154e-03 -7.32015e-03  1.34788e-03
       H -3.25555e-03 -9.58996e-04  1.01789e-02
       O  7.32410e-05  5.65624e-04  1.34921e-03
       H  4.08053e-03 -4.14968e-03  3.46493e-03
       H -3.72843e-03 -4.74404e-03  1.72621e-04
       O  1.74045e-03  6.87237e-04 -1.66055e-03
       H -3.63863e-03 -1.02287e-03  6.50399e-03
       H -3.59701e-03 -8.20906e-03 -3.65090e-03
       O  1.07072e-03 -1.72397e-04 -1.73171e-04
       H -8.14484e-03 -3.37925e-03  1.51677e-03
       H -1.00191e-03  2.07181e-03  6.42219e-04
       O -5.00296e-04 -4.93762e-04  1.36155e-03
       H -5.32532e-03  1.72292e-03  6.70876e-03
       H -2.95006e-03 -7.48481e-04  4.11633e-04
       O -6.57195e-04  6.33262e-04  2.07124e-04
       H -5.79047e-03 -1.06257e-03 -1.18172e-03
       H  1.16693e-03 -1.84442e-03 -3.67673e-03
       O  1.22183e-03 -7.03499e-04  9.31996e-04
       H -4.10510e-03 -4.65311e-03  1.65048e-03
       H  1.92301e-03  2.68819e-04  3.05177e-04
       O  1.30555e-03  8.67577e-04 -6.91897e-04
       H  2.35324e-03 -9.54119e-04 -2.15643e-03
       H -8.09841e-05 -1.11337e-03  6.33898e-04
       O -2.18140e-03 -6.60819e-04  2.48527e-04
       H  4.85834e-03  1.28486e-03 -1.61468e-04
       H -4.54534e-03 -4.40646e-03  2.74054e-03
       O -8.49603e-04 -7.48742e-04  5.24657e-04
       H  6.00179e-03 -9.73804e-04  6.37674e-03
       H -2.86935e-03 -3.91718e-03 -4.79143e-03
       O -3.21942e-04 -6.62973e-04  9.75329e-04
       H  5.07417e-03  1.00912e-03  8.08928e-03
       H  6.50667e-03 -5.42770e-03 -2.98385e-04
       O -3.30826e-04 -8.71126e-04  2.37958e-05
       H -1.21874e-03 -5.36139e-03 -3.84385e-03
       H -5.97907e-03 -6.07115e-03  4.46533e-03
       O  7.56239e-04  9.51617e-04 -4.64774e-04
       H  2.54307e-03 -2.52521e-03 -4.46982e-03
       H  6.08637e-04  8.98896e-04  1.25647e-03
       O  2.72721e-04  2.14893e-03 -4.36884e-04
       H  1.92663e-03  2.82464e-03 -3.91759e-03
       H -3.53084e-03 -8.03014e-03  1.52255e-03
       O  1.08895e-03 -1.13492e-04 -4.23491e-04
       H  1.62321e-03 -2.17084e-03  3.37465e-03
       H -2.08863e-03  6.42078e-04  3.91365e-04
       O  1.80620e-04  9.30354e-04 -8.85246e-05
       H  1.55537e-03  2.77351e-03  1.78292e-03
       H  2.42992e-03 -2.69824e-03 -3.14375e-03
       O  6.34432e-04  1.40045e-04  1.63587e-03
       H -6.69659e-03  3.51134e-03 -2.43397e-03
       H  1.02295e-03 -2.88488e-03 -3.13791e-03
       O -9.33120e-05 -1.31100e-03  9.21085e-04
       H -4.53827e-03  3.45212e-03 -1.58476e-04
       H  7.90690e-04 -1.65294e-04  4.14491e-03
       O  4.76645e-04  1.77821e-03 -5.97451e-04
       H  5.51089e-03 -5.22879e-04  4.69634e-03
       H  5.18543e-03  2.20032e-03  2.61109e-03
       O  1.07401e-04  9.74537e-04 -6.54119e-04
       H -4.79040e-03  2.22333e-03  3.09020e-03
       H -3.19296e-03  1.09276e-02 -5.06333e-03
       O  1.51164e-04 -6.74983e-04 -4.67529e-04
       H -5.84979e-03  2.92245e-03 -3.54569e-03
       H  1.08987e-03 -2.12725e-03  5.05207e-03
       O -3.87626e-04 -2.63206e-04  1.16793e-04
       H -4.54884e-03  1.17256e-03  3.65287e-03
       H -2.66916e-03 -2.89667e-03  4.06720e-04
       O  1.42874e-03  5.59864e-04  1.88141e-03
       H  1.80837e-03 -9.36851e-04 -3.93275e-03
       H  3.22016e-03  4.00900e-03 -1.16040e-03
       O  8.65253e-04 -2.38505e-04 -5.84769e-05
       H -6.83120e-03  6.55595e-05 -4.48510e-03
       H -9.45872e-05 -1.23705e-03  2.12984e-03
       O  6.47985e-04 -1.33237e-03 -1.59756e-04
       H  2.23167e-03 -1.52472e-03 -4.90317e-03
       H -7.67601e-05  3.81982e-03  2.60357e-04
       O -2.72374e-04  2.35517e-04 -2.85572e-04
       H -5.58780e-03  6.08160e-03 -7.96195e-04
       H  5.15389e-03 -1.77685e-03 -1.42329e-03
       O -1.07793e-03 -1.73044e-03  1.83090e-03
       H  1.02609e-03  6.86910e-03  2.75057e-03
       H  2.37726e-03 -1.34713e-03 -4.11997e-03
       O  1.22436e-03 -1.09589e-03 -8.02355e-04
       H  8.55353e-04 -2.74734e-03  6.44355e-04
       H  7.29202e-04 -2.16082e-03  1.94087e-03
       O  1.73455e-03 -2.75582e-04  2.85571e-05
       H  5.51812e-03 -4.66509e-03  6.57348e-03
       H -3.27032e-03 -2.99440e-03  1.40095e-03
       O  1.09877e-03  6.58734e-04  5.17396e-04
       H  5.65170e-03  1.62914e-03  2.38182e-03
       H  4.18466e-03  4.06837e-03 -8.23340e-04
       O  2.91099e-04  2.32890e-04 -4.10634e-04
       H  5.10738e-03  2.95030e-03  1.89655e-03
       H -3.75135e-03 -1.77873e-03  3.49183e-03
       O -7.10570e-04  6.88116e-05  4.13886e-05
       H -3.70974e-03  4.48344e-04 -3.88590e-04
       H -4.04849e-04 -1.96313e-03 -2.39815e-03
       O  1.39886e-03  4.98193e-04 -1.12918e-04
       H  7.34041e-04  6.98721e-03 -8.86265e-03
       H  3.77865e-03 -3.05693e-03 -4.05864e-03
       O -6.99573e-04  5.57161e-04 -3.29261e-05
       H  1.41525e-03  6.69078e-03 -6.00576e-03
       H -2.91717e-03  4.46760e-03 -1.39440e-03
       O  5.00733e-04 -1.04966e-03 -3.22988e-04
       H -3.50555e-03 -2.64681e-03 -6.06952e-03
       H -3.59735e-04  7.61296e-04 -4.41147e-03
       O  1.14639e-04  1.75712e-04  2.02688e-04
       H -1.93158e-04  1.21586e-03  5.90635e-04
       H  1.64853e-04 -3.69075e-03 -4.73666e-03
       O  4.56207e-04 -3.14265e-04 -8.67919e-05
       H  1.15186e-04  8.76261e-05  3.90153e-03
       H -8.76832e-04  1.41872e-03 -7.80817e-03
       O  7.20830e-04  7.39173e-04  5.16613e-05
       H  5.76567e-04  4.29047e-03  3.09603e-04
       H -3.10357e-03 -1.11344e-03 -4.18976e-03
       O -7.05958e-04  8.59419e-04  4.03616e-04
       H  2.12536e-03  3.73227e-03  7.99586e-04
       H  1.22916e-03 -3.01507e-03  2.46090e-03
       O  1.08088e-03 -2.25735e-04 -3.39378e-04
       H  1.50978e-03  7.04078e-04  3.57882e-03
       H  4.14908e-03 -8.50388e-03 -3.82733e-03
       O  3.23713e-04  1.78541e-03 -1.07866e-03
       H  2.31890e-03  1.17582e-03  5.72804e-03
       H  6.43317e-04  2.20225e-03 -1.68504e-03
       O -1.36838e-03 -8.86260e-04  8.37216e-04
       H  2.85190e-03  3.69350e-03  2.00791e-03
       H  3.06319e-04 -3.20811e-03 -4.07485e-03
       O  4.93189e-04  2.18132e-05  1.76559e-04
       H  3.30859e-04 -3.53985e-04 -4.94399e-03
       H  3.74923e-04 -7.42905e-03  2.82316e-03
       O -6.41404e-04  4.48947e-04 -6.56813e-06
       H -2.56045e-03 -4.33691e-03 -2.54547e-03
       H  8.00124e-04  5.20011e-03  2.92447e-03
       O -8.62927e-04  4.33063e-04  6.39060e-05
       H  1.58152e-03 -9.83771e-04  1.12892e-03
       H  2.37406e-03 -4.54043e-03  2.33673e-03
       O -9.46647e-04  1.45812e-03 -1.08073e-03
       H  5.70727e-03  3.09973e-03  7.06040e-03
       H -7.50455e-04 -1.94568e-03 -8.95903e-04
       O  3.71672e-05 -1.26501e-03 -7.21324e-04
       H -2.52156e-04 -8.07554e-04 -5.05583e-03
       H -2.96979e-04 -2.11151e-03  3.25519e-05
       O -1.42368e-03 -4.97648e-04 -3.66440e-04
       H -3.19383e-03  5.00434e-03  4.74920e-03
       H -5.32690e-03  1.61757e-03 -1.30252e-03
       O -1.79201e-03 -7.30081e-04  3.57047e-04
       H -5.78109e-03  8.40570e-05  3.07332e-04
       H  5.96412e-03 -4.52309e-03  3.97795e-03
       O -1.17741e-03  3.80618e-04 -2.82686e-04
       H -4.50652e-03  3.21741e-03  8.40373e-04
       H -4.17871e-03  1.99113e-03 -2.44577e-03
192
# CELL(abcABC):   16.99620    29.43815    27.67315    90.00000    90.00000    90.00000  Step:          20  Bead:      12 velocities{atomic_unit}  cell{atomic_unit}
       O  1.15073e-03  2.04246e-04  1.30217e-04
       H -5.42641e-03 -5.26288e-03 -2.76691e-04
       H  4.02134e-03 -1.03135e-03 -7.85092e-04
       O -5.07222e-04 -2.84562e-04  1.05832e-03
       H  6.89690e-04 -1.48091e-03  2.40855e-03
       H  3.70522e-03  2.58409e-03 -4.73305e-04
       O -1.15891e-03  9.30812e-04  1.17177e-03
       H  2.36689e-03  1.97299e-03  2.22533e-03
       H  2.47177e-03 -4.35047e-03  9.25172e-04
       O  6.73195e-04  6.17009e-04 -1.01292e-03
       H  1.61870e-03 -5.89821e-03  8.36977e-04
       H -6.52362e-03  2.59594e-03  1.15857e-03
       O -1.86032e-04  6.93439e-04  1.06475e-03
       H  1.34551e-03  3.27895e-03  4.82281e-03
       H -3.45430e-03  1.95235e-04 -1.40962e-03
       O  5.01388e-04  2.29355e-03 -6.30553e-04
       H  8.26850e-04 -3.22702e-03  6.02202e-03
       H -2.64003e-03 -3.76027e-03 -8.48541e-03
       O  1.08186e-03  4.54497e-04 -1.07236e-03
       H  1.36006e-04 -4.40034e-03 -1.74977e-03
       H  3.84237e-03 -2.39138e-03  2.01163e-03
       O -4.56788e-04 -6.83372e-05  4.96935e-04
       H -1.13850e-03  5.51923e-03 -7.81919e-03
       H  1.79139e-03  8.62080e-03 -2.11663e-03
       O  5.18167e-04  4.91713e-04  8.64111e-04
       H  3.33904e-03 -5.15536e-03  7.68072e-03
       H -2.55703e-03 -2.11036e-03 -4.15636e-03
       O -8.57984e-04 -1.21843e-04  3.96545e-04
       H -2.23859e-03 -4.40500e-04  7.65994e-03
       H  1.09188e-03 -8.56749e-04  1.64053e-03
       O -5.95834e-04 -5.10393e-04 -9.55839e-04
       H  6.73916e-03  3.43493e-03 -5.06409e-03
       H -4.16841e-03 -3.96321e-03  4.16249e-03
       O  1.88491e-04 -1.69500e-03 -1.42642e-03
       H -8.54863e-04 -1.37327e-03  3.04545e-03
       H  2.29551e-03  3.57589e-03 -1.95889e-03
       O  6.49984e-04  8.54849e-04 -1.17364e-03
       H  3.05530e-03  1.59945e-03  4.04910e-03
       H -5.36418e-03 -3.50281e-03  1.04097e-03
       O  3.03039e-04  9.32344e-04 -8.63194e-04
       H -4.37759e-03 -2.22543e-03 -7.94454e-04
       H  1.96933e-03  6.13192e-03  1.90517e-03
       O -8.72132e-04  6.28779e-04 -2.16679e-04
       H -7.48302e-04  3.13033e-03  4.38805e-03
       H -2.63707e-03  9.21178e-04 -2.98301e-03
       O -9.15377e-04 -2.77118e-04  5.83841e-04
       H -2.47211e-03 -2.72071e-03 -6.61666e-04
       H -3.13849e-03  1.47941e-03  6.09186e-03
       O -3.61081e-04  5.18747e-04  7.17356e-04
       H -1.37448e-03 -3.92570e-03  6.90169e-03
       H  6.71838e-04  5.96891e-04  7.65226e-03
       O -6.16393e-04  6.51557e-04 -5.07323e-04
       H  5.48479e-03  6.42334e-03 -2.98518e-03
       H  7.52824e-04  1.10910e-03  5.43495e-03
       O  1.93139e-03 -3.12270e-04 -6.64132e-04
       H  5.70039e-03  2.94858e-03  1.63052e-03
       H  4.22854e-03 -9.84331e-03 -2.39730e-03
       O  8.68085e-04 -3.72123e-04  1.26186e-03
       H -2.01087e-03  5.49364e-03 -3.66351e-05
       H -7.21769e-04 -3.69394e-03 -5.46926e-03
       O  2.24905e-04 -7.88440e-04 -6.42928e-04
       H  2.22753e-03 -3.39838e-03  4.83176e-03
       H  8.93415e-04 -5.03569e-03 -1.26721e-03
       O -7.37305e-04 -2.28898e-04  7.49037e-05
       H  1.73456e-03  1.80266e-03 -4.30606e-04
       H -4.31902e-03  2.05941e-03  5.59831e-03
       O -5.96976e-04  1.77470e-04 -1.09309e-03
       H -6.03140e-03 -1.04559e-03 -3.71876e-03
       H  3.63900e-04 -9.05643e-04 -1.76911e-03
       O -7.10290e-04 -4.98617e-04  1.25654e-04
       H -4.05690e-04  1.08320e-03 -1.67335e-03
       H -1.19614e-03  6.24441e-03 -3.21437e-03
       O  9.48076e-05  8.05252e-04 -3.69350e-04
       H  6.74799e-05 -5.87537e-03 -8.63498e-03
       H -1.08158e-03  1.75306e-03  5.33693e-03
       O -1.39755e-05 -2.53119e-03 -3.15531e-04
       H  2.50831e-03  2.52400e-04  4.48061e-03
       H -3.80096e-03 -4.04056e-04  4.55298e-03
       O  6.26827e-04  5.06864e-04  4.82823e-06
       H -3.15957e-03  2.31868e-03 -1.91189e-03
       H -2.35081e-03 -6.75533e-03 -2.94489e-03
       O  6.01218e-04 -2.58285e-04  1.45220e-03
       H -5.13810e-04 -3.42819e-03  9.54799e-04
       H -5.38811e-05 -3.56497e-03  1.92065e-04
       O  4.23600e-04 -9.39333e-04  1.41097e-03
       H -2.62132e-04  1.96733e-03 -1.27791e-03
       H  2.96210e-03  5.35102e-03 -5.87635e-03
       O  8.78809e-04 -6.83945e-04 -8.24429e-04
       H  9.05146e-04 -4.51747e-03 -5.36302e-03
       H  5.21941e-03  1.73633e-03  1.89994e-03
       O  8.17759e-04 -8.54409e-04  2.54430e-04
       H  2.28702e-03  4.03488e-04  2.42087e-03
       H -4.01796e-03 -3.28055e-03  2.69537e-03
       O  7.98411e-04  3.48140e-04 -2.41770e-04
       H -1.71552e-03 -1.40643e-05  3.59974e-03
       H -3.89211e-03 -4.92928e-05 -4.63045e-03
       O -6.10088e-04  1.04673e-03  7.22121e-04
       H  6.76015e-04  6.65305e-03  1.00741e-02
       H -1.05855e-03 -4.98639e-03  2.41029e-03
       O -1.77506e-03  9.20690e-04  4.51719e-04
       H  1.12852e-03  6.44536e-05 -1.41923e-03
       H  5.67315e-04  1.20966e-03 -9.33683e-06
       O  9.92800e-04  3.19452e-04  4.31760e-04
       H -2.08386e-03  3.22013e-03  5.06758e-03
       H -3.16787e-03 -6.35375e-05  1.94920e-03
       O -2.02799e-03  2.01551e-03  3.95610e-04
       H  2.04562e-03  7.37739e-03 -1.15023e-03
       H -1.72057e-03 -3.36991e-03  2.64203e-04
       O -1.01296e-03  3.09914e-04 -3.46590e-04
       H  4.00464e-03 -4.23724e-03 -2.50703e-03
       H  3.88174e-05 -1.96875e-03 -4.95016e-03
       O -1.70664e-04 -8.99182e-05 -9.41356e-05
       H -1.29356e-03 -8.00473e-03  9.21594e-04
       H -3.51049e-04 -6.44098e-03  2.73922e-03
       O  8.53975e-04 -1.10911e-03  7.54390e-04
       H -4.16691e-04 -2.81238e-03 -1.78221e-03
       H -3.58917e-04 -8.99081e-04 -4.65778e-04
       O -1.42887e-04 -5.60443e-04 -1.04926e-04
       H  2.91900e-03 -2.32289e-03 -6.44691e-04
       H -1.89311e-03  1.86240e-03  1.55299e-03
       O -8.16879e-05 -3.49781e-04 -8.91238e-04
       H  8.02085e-03 -4.14979e-04  6.38067e-04
       H  1.11556e-03 -1.70230e-03  6.33360e-03
       O  8.33379e-04 -5.24369e-04 -1.81609e-04
       H -1.82520e-03  4.14391e-03  1.45465e-03
       H  4.38832e-03 -5.03248e-03  1.62810e-03
       O -3.37243e-05  2.20787e-03 -2.37168e-04
       H  4.18794e-03  3.58276e-03  4.58430e-05
       H -6.27687e-03  8.62952e-04 -6.17883e-03
       O -2.13552e-05 -3.68713e-04 -4.91954e-04
       H  8.96170e-05 -4.16484e-03 -2.50401e-03
       H -3.95507e-03 -3.87841e-03 -2.25887e-03
       O -2.81873e-04  9.97854e-04 -7.55990e-04
       H -9.51440e-04  3.30793e-04  3.94161e-03
       H  2.76828e-03 -2.17279e-03  1.95062e-03
       O -6.03335e-04  2.11656e-03 -1.98303e-03
       H  7.22656e-03 -3.03309e-03  9.46533e-04
       H  5.30281e-03  4.09649e-03 -4.47833e-03
       O  8.76928e-04 -1.37510e-04 -9.57283e-04
       H -4.23422e-03 -2.66527e-03 -1.49084e-03
       H  2.31334e-03 -1.68144e-03 -1.54452e-03
       O -1.18308e-03  2.20803e-04 -1.41631e-03
       H  3.80496e-03  5.27820e-03  2.80017e-03
       H  7.65136e-04  5.77060e-05 -1.38215e-03
       O  5.63718e-04 -1.59355e-03  6.29162e-04
       H -1.90378e-03 -2.49517e-03  5.62452e-03
       H  1.79091e-03 -8.50300e-03 -5.06132e-04
       O -2.99291e-04 -6.34058e-05 -4.59981e-04
       H  1.94198e-03 -7.65937e-03 -9.36592e-04
       H  3.11845e-03 -5.07997e-03  2.38227e-04
       O -1.05232e-03  9.09564e-04  5.28838e-04
       H -8.72317e-04 -2.44430e-03  8.19152e-03
       H  3.03071e-03  7.73805e-04  2.43872e-03
       O -2.86512e-04  6.40573e-04  6.61115e-04
       H -1.06258e-03  2.40322e-03 -8.80703e-04
       H  4.65742e-04  5.08988e-03  5.73828e-03
       O  2.49229e-05 -1.20729e-03  1.49494e-03
       H -3.29829e-04 -1.07480e-03  3.35545e-04
       H -8.09463e-04  5.12203e-03 -1.46075e-03
       O  1.33204e-03  7.77249e-04 -4.86880e-04
       H  2.11799e-04  7.30738e-05 -8.89600e-04
       H  5.34474e-03  8.87705e-04  3.50211e-03
       O -2.39798e-04 -4.00539e-04  7.33062e-04
       H  6.31133e-03 -1.36002e-03 -9.75469e-04
       H -1.94993e-03  1.43485e-03 -5.13422e-04
       O -9.17249e-04 -1.65475e-04 -1.39398e-03
       H  5.36569e-03 -4.47109e-03 -1.32659e-03
       H -2.55915e-04  5.89204e-03 -3.97251e-03
       O  1.61988e-03  2.98708e-04 -7.16021e-04
       H -1.65565e-03  2.55004e-03  1.64593e-03
       H -1.44716e-03  3.20751e-03 -3.26366e-03
       O  6.74017e-04 -2.90986e-04 -4.94699e-05
       H  9.74142e-03  1.02807e-03 -2.43082e-03
       H -1.90791e-03 -9.10760e-04 -1.24291e-03
       O -2.44034e-04  1.62151e-03  1.37073e-03
       H  2.65251e-03  4.05059e-03  4.03667e-03
       H  1.71676e-03  1.69991e-03 -4.79490e-04
       O -4.62086e-04  8.08907e-04 -1.29560e-03
       H -2.11531e-03  2.81938e-03 -5.83203e-03
       H  1.39445e-03  8.49735e-03 -1.46255e-03
       O -2.02195e-03 -6.92406e-04 -5.86077e-04
       H -2.71350e-03  2.28442e-03 -2.07523e-04
       H  1.77269e-03 -1.89719e-03  4.01583e-03
       O  3.27883e-04 -1.08655e-03  4.84823e-04
       H  3.56283e-03 -4.28138e-03  5.87258e-03
       H  5.83688e-03 -4.37057e-04 -3.52762e-03
       O -1.22954e-03 -6.72829e-06  1.12366e-03
       H -8.22417e-03  4.50620e-03  3.07793e-03
       H -3.07771e-04  5.81868e-04 -2.64933e-03
       O  9.42303e-04 -1.12737e-03  3.69528e-04
       H -3.30119e-04  2.00666e-03 -6.91348e-03
       H  2.81905e-03 -4.95182e-04 -3.80709e-03
192
# CELL(abcABC):   16.99620    29.43815    27.67315    90.00000    90.00000    90.00000  Step:          30  Bead:      12 velocities{atomic_unit}  cell{atomic_unit}
       O  9.80691e-04 -5.28318e-04  1.47976e-03
       H  4.77433e-03  6.88826e-03  4.69838e-03
       H -6.37446e-03  1.43243e-03 -6.42534e-03
       O -3.64455e-04 -7.20003e-04 -1.10873e-03
       H -3.34599e-03  1.95787e-03  1.56192e-03
       H -3.49333e-03  1.18637e-03  1.01231e-03
       O -6.85533e-04  3.80839e-04 -1.40419e-04
       H  3.11187e-03 -1.49069e-04 -2.80653e-03
       H -5.56631e-03  3.02148e-03  4.48630e-03
       O  1.32080e-04  9.99170e-04  2.00077e-03
       H -3.07648e-03 -8.39319e-04 -8.30549e-04
       H  2.44357e-04 -8.36647e-04  6.28201e-04
       O  7.61315e-04  7.24782e-04  1.64344e-03
       H -3.99847e-03 -2.59050e-03 -5.13133e-03
       H  3.02723e-03 -2.64457e-03  3.65033e-03
       O  2.60506e-03  1.68735e-03 -1.19275e-03
       H  2.90588e-03  4.48850e-03  4.29988e-03
       H -1.12153e-03  5.82209e-03  1.08517e-03
       O -1.30552e-03  4.61744e-04  3.52687e-04
       H  9.72551e-04  1.05369e-03  1.37282e-03
       H -2.52096e-03 -1.21200e-03  6.66194e-03
       O  1.07603e-03 -7.47845e-04 -8.48843e-04
       H  1.22766e-03 -3.24863e-03  7.90701e-03
       H -3.76941e-03 -1.31692e-04  2.09042e-03
       O -1.97950e-03  5.42035e-04 -3.28818e-04
       H  1.43848e-03  3.50899e-03  1.13044e-03
       H -1.83296e-03  1.52344e-03  2.89629e-03
       O  1.56163e-03  4.38549e-04  1.65389e-03
       H  4.72859e-03  6.39952e-03  1.28551e-04
       H  3.96018e-03 -2.57924e-03 -8.17120e-04
       O  4.65250e-04 -1.16367e-03 -3.72911e-04
       H  2.88187e-03 -7.17491e-04  3.25542e-03
       H -1.79253e-03  1.92577e-03 -2.34795e-03
       O -5.88886e-04 -1.79494e-04  3.71443e-04
       H  3.31603e-03  4.31417e-03 -6.33786e-03