192
# CELL(abcABC):   16.99620    29.43815    27.67315    90.00000    90.00000    90.00000  Step:           0  Bead:      12 velocities{atomic_unit}  cell{atomic_unit}
       O -3.55211e-04  1.93907e-04  2.27392e-03
       H  6.64863e-04  5.18305e-03  1.54145e-03
       H  2.49924e-03  1.24260e-03  3.10247e-04
       O -1.25087e-04  7.72624e-04  2.22315e-03
       H -2.41255e-03 -5.48372e-03  1.59274e-03
       H  2.61073e-03  7.05429e-03  4.19256e-03
       O  1.39369e-04 -3.63278e-04  5.28282e-04
       H  1.01582e-03  5.99749e-04  4.39689e-03
       H  2.63703e-03  1.43641e-03 -1.43168e-03
       O  1.96016e-03  1.70081e-03  9.36630e-04
       H -3.40530e-03  1.38595e-03 -3.35670e-03
       H  5.02612e-03  3.79893e-03  9.36518e-04
       O  8.15852e-04 -2.77196e-04 -7.55655e-05
       H -2.75860e-03  1.94068e-03  1.10836e-03
       H  3.22594e-03  2.22912e-03  5.40845e-03
       O  3.22541e-04  2.06122e-07 -8.24160e-04
       H  2.02445e-03 -5.75975e-04 -1.10848e-03
       H -2.66078e-04  3.13816e-03  5.66674e-03
       O  8.79426e-05  4.21994e-05  5.45443e-04
       H  1.19656e-04  6.11906e-03  9.97777e-05
       H  1.23638e-03 -3.50974e-03  4.49523e-03
       O  4.15322e-04 -3.35330e-04  5.20490e-04
       H -2.72985e-03 -4.21539e-04 -2.78776e-03
       H  2.01424e-04 -5.80072e-04  2.99230e-03
       O  2.25426e-04  7.92746e-04 -1.37534e-03
       H  2.41220e-03 -5.78746e-03  1.95223e-03
       H -5.65906e-03  3.85090e-04 -2.46684e-03
       O  1.90178e-03 -1.81647e-03  4.31227e-04
       H -3.26850e-03  5.13638e-04  1.23239e-03
       H -2.96338e-03 -2.67676e-03  4.27633e-03
       O -1.12558e-03 -1.92076e-04  8.40999e-04
       H  5.05233e-03  3.69450e-03  1.54610e-03
       H -3.04536e-03 -2.84061e-03 -2.29558e-04
       O -1.85549e-03 -3.35312e-04 -6.81752e-04
       H -7.17852e-03 -4.59413e-03  4.13326e-04
       H  1.09531e-03  6.28781e-04 -6.24821e-04
       O  8.57070e-04 -1.61683e-03  6.00742e-04
       H -3.98593e-03 -2.63694e-03 -9.99760e-04
       H -1.87460e-03  8.39266e-04  2.13351e-04
       O  8.75059e-04  6.46876e-04  8.07629e-05
       H -3.35762e-03  5.15360e-03 -4.11181e-04
       H -1.85618e-04 -8.82386e-03  6.73082e-04
       O  1.06807e-03  1.09697e-03  4.21023e-04
       H -4.02798e-03 -4.58489e-03  7.75655e-04
       H -1.65876e-03 -1.12466e-04 -3.57031e-03
       O  1.84787e-04  1.05963e-03  1.05079e-03
       H -4.79429e-04 -2.77644e-03 -1.77970e-04
       H  1.16141e-03  2.42891e-03 -3.36711e-03
       O -7.39877e-04 -7.83593e-04 -1.44599e-03
       H  3.97312e-03  1.55453e-03  6.45157e-03
       H  3.56500e-03 -2.59658e-03  4.95103e-03
       O  5.96977e-05  2.98395e-04 -1.79701e-03
       H  4.83872e-03 -4.65004e-03 -2.94836e-03
       H  1.04972e-03  2.08785e-03  5.90137e-04
       O -1.25869e-03  3.24042e-04 -5.49709e-04
       H -6.19379e-03 -1.81548e-03 -4.03878e-04
       H  1.34990e-03  6.27097e-03  4.27651e-03
       O -8.59105e-04 -2.16722e-04  1.69088e-03
       H  3.08957e-03 -2.30771e-03  4.01169e-03
       H  4.21461e-03 -2.56729e-04 -2.71291e-03
       O -1.93917e-04 -1.13783e-03  4.21086e-04
       H -3.23975e-03 -2.51385e-03  2.23467e-03
       H  1.04566e-03  2.33883e-03 -2.20596e-03
       O  1.12084e-04 -3.71579e-05  7.11045e-04
       H -3.24051e-03 -2.56365e-03  3.19344e-03
       H  1.83552e-03 -3.15221e-03  5.04881e-03
       O -5.11872e-04  1.06038e-03  2.01646e-03
       H  5.15947e-03  3.20660e-03  2.42337e-03
       H  2.57639e-03  1.64971e-03  4.92188e-03
       O  1.34665e-04 -6.77110e-04 -1.44233e-03
       H -8.84476e-03  1.25454e-03 -1.14298e-03
       H  1.67236e-04 -3.05693e-03 -4.96163e-03
       O  4.66900e-04  1.78125e-03 -2.36199e-03
       H -7.33632e-04  2.06551e-03  2.67334e-03
       H -4.07080e-04 -1.90207e-03  6.80466e-03
       O -3.29706e-04  2.98780e-04 -1.86861e-03
       H  1.39445e-03  4.87092e-03 -5.82102e-03
       H  1.14463e-03 -7.96188e-04  7.61755e-03
       O  2.71732e-05 -6.06052e-04  1.10258e-03
       H -2.89132e-03  5.31867e-03 -8.11744e-04
       H  3.71401e-03 -7.13339e-03 -2.09843e-03
       O -2.78056e-04 -7.30729e-05 -5.53161e-04
       H -4.99438e-03  1.20853e-03 -6.47825e-03
       H  2.10802e-03  4.24386e-03  3.17516e-03
       O -1.32233e-03 -1.22510e-03 -7.68876e-04
       H -8.20627e-04 -3.22353e-03  8.08352e-03
       H -1.89970e-03  3.25724e-03  6.16620e-03
       O -2.06547e-03 -8.70182e-04  6.16217e-04
       H -1.18677e-03  3.63539e-03  9.03669e-04
       H -3.38190e-03  7.18813e-04  3.16546e-03
       O  1.63592e-03 -2.63691e-06 -1.30330e-03
       H  9.06098e-04  2.49026e-03  5.35897e-04
       H  1.07183e-02  6.16402e-04  3.70340e-03
       O  5.60274e-04  9.48148e-04  6.78617e-04
       H  3.45477e-03 -2.43458e-03 -3.77794e-03
       H  5.85687e-03  1.74011e-03  3.62286e-03
       O  2.27501e-03 -9.47492e-04  3.89780e-04
       H -1.05775e-02 -1.60960e-03  3.72524e-03
       H -2.54602e-03 -1.60643e-03 -5.27248e-03
       O  2.08988e-04  2.54101e-03 -8.91449e-04
       H -5.44094e-03  9.17865e-03 -4.89278e-03
       H -6.21603e-04 -7.27284e-03  8.98713e-04
       O  7.60194e-04 -4.97088e-04  1.41270e-03
       H -3.57086e-03  7.82824e-03  5.50793e-04
       H  5.59307e-03  7.29054e-04 -3.85137e-03
       O  4.90757e-04  8.25205e-04  6.53450e-04
       H -2.99237e-03 -8.09048e-03  7.97690e-04
       H  5.00982e-04  2.13672e-03 -4.35111e-03
       O  1.36335e-03  3.48467e-04  5.94354e-05
       H -7.37474e-03  5.42427e-03 -6.52089e-03
       H  5.07990e-03 -6.57653e-05 -3.00504e-03
       O  4.03993e-04 -5.46288e-04  4.71234e-04
       H -2.59324e-03 -1.54676e-03 -1.91760e-03
       H  4.26953e-03  6.94430e-03 -9.28050e-04
       O  1.10607e-03 -4.31899e-04  1.18542e-05
       H -3.61776e-05 -1.97473e-03 -2.09503e-05
       H  5.73551e-03  1.71653e-03 -1.29130e-03
       O  6.01429e-04 -4.57530e-05 -1.18699e-03
       H -3.03777e-04 -1.28589e-03 -3.94255e-03
       H  4.88751e-03 -2.70842e-03  2.30811e-03
       O  1.22241e-03  1.82202e-05 -2.80372e-04
       H -2.14504e-03 -7.30205e-03  3.84257e-03
       H -5.55386e-03 -9.89089e-04 -2.08342e-03
       O  1.56710e-04 -1.58095e-03 -1.35455e-04
       H  1.30663e-03 -8.68502e-04  8.35884e-03
       H -3.21074e-03  4.57640e-04 -2.98813e-03
       O  1.45896e-04 -6.21995e-04 -1.33055e-04
       H  5.36107e-04 -7.13502e-03 -7.32356e-03
       H -3.82423e-04 -2.37514e-03  9.35052e-03
       O -1.88358e-03  3.94214e-04 -1.02632e-03
       H  1.46821e-03  5.80865e-03 -1.72177e-03
       H  2.95499e-03  5.26281e-03  2.84875e-03
       O -1.12513e-03  3.81261e-04 -7.98578e-04
       H -3.01181e-03  9.03373e-04  5.73511e-03
       H  2.22790e-03 -1.07990e-03 -3.57477e-03
       O -5.34679e-04  9.93763e-04  4.96200e-04
       H -3.55771e-03  7.99983e-03  1.16604e-02
       H -1.89928e-03  2.71022e-03  1.38797e-03
       O  1.25456e-03 -9.44965e-05  2.22795e-04
       H -1.02753e-03  1.15345e-03 -1.78641e-03
       H  2.75401e-03  1.33357e-03  5.91589e-03
       O -2.65561e-04 -1.17539e-03 -8.11997e-04
       H  1.35046e-03  8.93255e-03  8.11210e-04
       H  1.07854e-03  1.70427e-03 -6.00271e-04
       O  1.58339e-03 -3.64681e-04 -2.20117e-05
       H  2.35078e-03  9.00001e-04  4.40842e-03
       H -3.93443e-03  1.20303e-02  2.11537e-03
       O  1.23040e-03 -6.74301e-04 -3.22129e-04
       H -1.26121e-03  4.78128e-03 -2.72782e-03
       H -5.23561e-03  5.75553e-03 -1.04843e-03
       O  8.50558e-04  2.11668e-04  4.91346e-04
       H  3.25835e-03 -3.06309e-03  2.61866e-03
       H  4.58515e-04 -5.32751e-03 -1.55137e-03
       O -1.17000e-03  3.05877e-04 -3.58321e-04
       H -5.53623e-03  7.11482e-04  1.03328e-03
       H  2.32538e-04 -6.08308e-03 -3.41921e-04
       O  7.21432e-04 -2.10281e-03  1.47805e-03
       H  2.65449e-03 -1.03653e-03 -3.02943e-03
       H  4.17493e-03 -4.70746e-03  4.21689e-03
       O  4.32626e-04  1.03739e-03 -2.51402e-04
       H  2.65853e-03  2.84321e-04 -1.57101e-03
       H -6.65147e-03  6.60692e-03 -2.25666e-03
       O  1.31015e-03  3.36674e-04  1.02695e-03
       H -7.43177e-03 -3.78505e-03 -5.93378e-04
       H -2.88628e-03  2.70078e-03  1.04158e-03
       O -8.38842e-04  5.83920e-04  2.13840e-03
       H -4.43416e-03 -4.14356e-03 -4.85251e-03
       H  5.29852e-03  7.65134e-04 -3.89214e-03
       O -8.37521e-04 -7.48920e-04  8.52996e-05
       H  1.27392e-03 -8.91420e-03  2.89495e-04
       H -1.62673e-03  1.97969e-03 -8.12388e-03
       O -1.23380e-03  8.93840e-04  3.14365e-04
       H  7.94470e-04  5.99903e-04 -7.06964e-03
       H -4.95137e-03 -6.62238e-05  9.25872e-04
       O  1.24255e-03  4.91346e-04 -1.25733e-03
       H -1.81527e-03 -6.07329e-03 -1.68791e-03
       H -1.01378e-03 -4.79591e-03  3.50887e-03
       O -7.09668e-04  4.59530e-04 -5.35658e-04
       H  2.33144e-04 -2.42790e-03 -3.14955e-03
       H -2.82412e-04 -5.71453e-04 -6.43064e-03
       O  5.26183e-04  1.03169e-03 -7.35961e-04
       H  6.44508e-03 -1.30609e-04 -1.28965e-03
       H  5.29686e-04 -2.09041e-03  2.70367e-03
       O -5.15773e-04 -1.64218e-03 -1.70449e-03
       H -2.39656e-03  2.58103e-03  2.16060e-03
       H  2.01816e-03 -2.07375e-03 -3.92645e-03
       O  9.27062e-04  1.81798e-03 -1.12489e-04
       H -2.01932e-03 -2.52653e-03 -6.29925e-03
       H  1.45111e-03  5.28461e-04 -1.82228e-03
       O -2.25554e-04  8.40479e-04  2.02140e-04
       H -6.32461e-03  4.01231e-03  4.00939e-03
       H -5.01447e-03  3.47830e-03  1.12162e-02
192
# CELL(abcABC):   16.99620    29.43815    27.67315    90.00000    90.00000    90.00000  Step:          10  Bead:      12 velocities{atomic_unit}  cell{atomic_unit}
       O  6.04925e-04  8.75090e-05 -6.79099e-05
       H -1.33205e-03  4.64281e-03  2.10039e-03
       H -1.03084e-03 -3.13940e-04 -1.44454e-03
       O -6.89930e-04 -9.13920e-04 -2.36742e-04
       H  8.38620e-04 -3.63663e-03  8.75344e-03
       H -3.34612e-03 -4.35988e-03 -9.64461e-04
       O -9.87911e-04 -1.63014e-03 -4.67081e-04
       H  2.23406e-03  4.34387e-03  9.80827e-04
       H -5.98082e-03 -3.94791e-03  2.45823e-03
       O -1.26539e-04  2.73734e-04  9.56183e-04
       H  2.45563e-04 -7.31075e-03 -8.15509e-04
       H -4.52294e-03  6.30011e-03 -8.08051e-04
       O  5.68599e-04  3.30814e-05 -6.19344e-04
       H  3.60164e-03  5.50115e-03 -9.91107e-05
       H  3.24463e-03 -1.74862e-03 -2.17678e-03
       O  2.28704e-03 -1.27163e-03  4.92202e-04
       H -1.91056e-03 -4.82780e-03 -1.89331e-03
       H -1.23475e-03 -2.30178e-03  4.79223e-04
       O  1.05649e-03  2.75169e-03  9.53578e-04
       H -3.00445e-03  2.48683e-03 -5.64928e-03
       H -4.31747e-03  4.27482e-03 -3.94778e-03
       O  1.70807e-04  1.04893e-03 -6.60840e-04
       H  7.98402e-03  9.56361e-04 -1.30223e-03
       H  1.28510e-03 -3.63493e-03 -6.25083e-03
       O -2.14477e-04  7.23370e-04  3.64509e-04
       H  1.12075e-03 -4.69130e-03 -4.30953e-03
       H  2.27521e-03  1.08495e-03 -3.36846e-03
       O  6.84054e-04 -9.72035e-04  8.79126e-04
       H -3.14273e-03 -2.79635e-03 -1.87825e-03
       H -5.53942e-04  1.31362e-03 -2.59191e-03
       O -3.71464e-04 -5.35132e-04  1.24425e-03
       H  2.56535e-03 -1.99938e-03 -2.43718e-04
       H  7.34603e-03 -3.08168e-03  2.29857e-04
       O  8.26194e-04  1.20388e-03  9.80975e-04
       H  6.06711e-03  6.80928e-03 -2.66882e-03
       H  1.36417e-03  1.15660e-03  5.13348e-03
       O  1.17881e-03 -1.24324e-04  7.99095e-04
       H -1.20238e-03 -3.73211e-03  2.56894e-03
       H -5.99655e-03  1.22236e-03  4.60168e-03
       O -1.08393e-03  6.13266e-04 -7.92953e-04
       H  7.19119e-04 -3.80824e-03 -1.74348e-03
       H -1.65662e-03 -1.86397e-03 -2.73808e-03
       O  5.47876e-04  2.50377e-04 -7.03992e-04
       H  2.22420e-03 -3.52789e-03  5.72098e-04
       H -5.09020e-03 -4.84624e-04  7.53479e-03
       O -4.27157e-04  2.87499e-04  8.37404e-04
       H  1.39770e-03 -5.46515e-03  2.56911e-03
       H -1.73711e-03 -1.75142e-03  6.22051e-03
       O  2.05112e-03  1.17006e-03 -8.18047e-04
       H -7.39458e-03 -1.65385e-04  7.14526e-03
       H -3.38165e-03 -9.56445e-03 -6.76683e-03
       O  9.22062e-04 -5.28505e-05  5.35539e-04
       H -5.80284e-03 -7.64484e-04  6.75735e-04
       H  2.64545e-03  7.49689e-03 -1.80392e-04
       O -7.77689e-04 -9.41779e-04  7.15797e-04
       H -2.35068e-03  5.41921e-03  7.61251e-03
       H -3.99481e-03 -1.79035e-03  1.54201e-04
       O  5.60572e-04  9.67670e-04 -4.02895e-04
       H -6.75923e-03  7.00356e-04 -9.31365e-04
       H  8.24928e-04  1.01292e-04 -2.39362e-03
       O  1.08065e-03  2.45280e-04  1.73179e-04
       H  8.99430e-04 -4.04110e-03  2.99681e-03
       H  6.13152e-03  3.04258e-03 -6.07452e-04
       O  2.03396e-04  2.60338e-04 -1.52848e-03
       H  6.53856e-04  1.90030e-03 -5.25136e-04
       H -9.00942e-04 -3.53539e-03  9.49646e-04
       O -2.32010e-03 -7.72391e-04 -1.17195e-04
       H  6.35057e-03  1.34572e-03  1.53593e-03
       H -2.91668e-03 -5.83478e-03 -3.09234e-04
       O -9.02259e-04 -9.35428e-04 -8.99770e-05
       H  4.63534e-03 -1.31646e-03  3.22797e-03
       H -2.55990e-03 -4.71910e-03 -1.40969e-03
       O  6.75690e-05 -7.26644e-04  5.34500e-04
       H  4.42760e-03 -1.82387e-03  6.19297e-03
       H  3.79966e-03 -4.50508e-03 -1.82136e-03
       O -3.37783e-04 -6.44317e-04  2.53112e-04
       H -1.15110e-03 -4.28014e-03 -2.02694e-03
       H -6.07285e-03 -3.40201e-03  3.93169e-03
       O  7.57800e-04  2.07309e-03 -4.86746e-04
       H  9.97882e-04 -3.81705e-03 -2.88882e-03
       H -1.33972e-04  3.18334e-03 -2.51455e-03
       O  1.25930e-03  5.97218e-04  4.34203e-04
       H  1.92733e-03  3.46053e-03 -4.59095e-03
       H -1.03642e-03 -6.74822e-03 -1.87736e-03
       O  1.45088e-03  9.62514e-06  3.88368e-04
       H -8.15845e-04 -1.43064e-03  2.76797e-05
       H -2.34632e-03  6.63724e-03 -4.43623e-03
       O -7.67740e-04  1.38991e-03 -4.32038e-04
       H  3.23993e-03  1.15430e-03  1.74225e-03
       H  2.91779e-03 -3.99930e-03 -4.38147e-03
       O -1.48977e-04  4.92754e-04  1.12493e-03
       H -4.55364e-03  3.85204e-03 -4.69763e-03
       H -4.28502e-04 -4.05246e-03 -3.46555e-03
       O -1.04927e-04 -2.02858e-03  9.47681e-04
       H  4.55524e-04  2.24396e-03  2.47726e-03
       H -3.02833e-03  1.49890e-03  4.11061e-03
       O -2.41133e-04  1.98543e-03  1.29388e-04
       H  4.05216e-03  8.14661e-04  3.43422e-03
       H  5.37088e-03  2.86617e-04  5.15001e-03
       O -5.35954e-04  9.15922e-04 -3.93260e-04
       H -3.19624e-03  3.67310e-03  6.29655e-04
       H -3.67098e-03  1.19991e-02 -5.34552e-03
       O -1.85694e-04 -5.44243e-04 -1.68802e-05
       H -8.53553e-03  1.21689e-03 -4.74400e-03
       H  9.57129e-04  2.87334e-03  2.30230e-03
       O -2.95226e-04 -4.92170e-05 -3.60772e-05
       H -2.58792e-03  3.47091e-03  1.70194e-03
       H  2.18796e-03 -3.90495e-03  4.22842e-03
       O  8.06968e-04 -1.41049e-05  1.43950e-03
       H  2.30244e-03 -6.19007e-03 -8.41189e-04
       H  4.03537e-03  1.73087e-03  1.39444e-03
       O -7.72770e-04  4.71059e-04  1.12248e-04
       H -1.84785e-03 -1.09297e-03 -2.16539e-03
       H -7.47433e-04 -3.44226e-03 -2.47280e-03
       O  5.41879e-04 -2.10920e-03 -8.74764e-05
       H  7.98730e-04  2.88499e-03 -3.32918e-03
       H -1.54704e-03  4.99209e-03 -1.36573e-03
       O -1.64062e-04  5.86437e-04 -4.42954e-04
       H -5.04319e-03  5.94488e-03 -3.12959e-03
       H  6.30425e-04 -1.38259e-03  1.35898e-03
       O -7.99771e-04 -1.38317e-03  1.91721e-03
       H -3.94735e-03  5.48193e-03  4.92122e-03
       H -9.01901e-05 -4.12033e-03 -2.73408e-03
       O  9.79809e-04 -1.09092e-03 -1.76083e-04
       H  5.65648e-04 -2.13056e-03  1.71309e-04
       H  2.76603e-05 -1.21463e-03  3.22629e-03
       O  1.44201e-03 -4.78161e-04  1.26533e-03
       H  1.11680e-02 -4.17525e-03  7.98128e-03
       H -7.58444e-04 -1.39271e-03  1.25230e-03
       O  2.11910e-04  1.78190e-04  5.02684e-04
       H  1.26888e-03  1.86356e-03  6.45101e-04
       H  6.15445e-03  2.60040e-03 -3.32359e-04
       O  3.03587e-04  1.71945e-04 -4.68200e-04
       H  5.34899e-03  2.81092e-04  3.33066e-03
       H  4.79227e-04 -1.12250e-03  3.78544e-03
       O -1.27037e-03  9.24366e-05  1.24370e-04
       H -8.24757e-04  1.86691e-03 -9.77251e-04
       H  4.31105e-04 -1.23901e-03 -1.61789e-03
       O  1.12669e-03  4.32781e-04 -5.78017e-04
       H  1.54624e-03  2.27984e-03 -9.24298e-03
       H  3.70326e-03 -6.05047e-03 -5.20139e-03
       O -1.10061e-03  7.05595e-04 -2.28079e-04
       H  8.15429e-04  4.36738e-03 -5.80778e-03
       H -4.14340e-03  2.80935e-03 -1.44762e-03
       O  9.66487e-04 -1.68526e-03  5.07581e-05
       H  1.40992e-03 -3.11804e-03 -4.38237e-03
       H  8.84042e-04 -7.67067e-04 -1.83193e-03
       O -2.57280e-04  4.04082e-04 -3.49067e-04
       H -5.17314e-03 -2.38150e-03 -1.18708e-03
       H  2.40398e-03 -1.61904e-03 -5.89281e-03
       O -1.07158e-04  3.30756e-04 -1.22821e-04
       H -2.13529e-03 -1.73360e-03  3.72928e-03
       H -3.40445e-03  5.35375e-03 -6.72137e-03
       O  3.94063e-04  2.64688e-04  3.63372e-04
       H -2.34082e-03  3.46995e-03 -2.30304e-03
       H -1.33579e-03 -1.43250e-03 -6.61305e-03
       O -1.30541e-04  6.94274e-04  4.45385e-04
       H  2.22136e-04  2.89816e-03  1.07778e-03
       H -1.18074e-03 -4.24755e-03  5.36415e-03
       O  1.25300e-03 -1.09004e-03 -7.71365e-04
       H  3.69311e-03  1.24004e-04  1.26088e-03
       H  2.86442e-03 -1.06054e-02 -1.11970e-03
       O -5.90216e-04  2.37188e-03 -8.61528e-04
       H  3.65739e-03  2.03269e-04  3.08094e-03
       H -6.17965e-04 -5.25573e-04 -1.02795e-03
       O -5.35645e-04 -1.01876e-03  4.30317e-04
       H -1.34565e-04  4.33589e-03  6.79008e-03
       H -3.12890e-03  3.05501e-03 -1.56758e-03
       O  5.60872e-04  2.33994e-04  2.39101e-04
       H  4.46380e-05  3.10455e-03 -4.91693e-03
       H  3.34204e-03 -5.21044e-03  3.46692e-03
       O -2.07857e-04  6.48443e-04 -2.86169e-04
       H -1.13112e-03 -3.43585e-03 -4.86990e-03
       H  7.17018e-05  4.58647e-03  8.85997e-04
       O  7.36431e-05  3.79792e-04 -3.56676e-04
       H  3.34573e-03  3.69856e-03  6.07361e-04
       H  6.71163e-04 -4.63588e-03  4.13255e-03
       O -9.54233e-04  1.96102e-03 -1.59066e-03
       H  3.95433e-03  3.13178e-03  4.08558e-03
       H -3.58541e-03 -1.78331e-03 -2.15617e-03
       O -2.51750e-04 -1.09002e-03 -7.74039e-05
       H -1.66850e-03  1.53182e-03 -4.23959e-03
       H -3.79260e-03  1.43678e-03 -7.98275e-04
       O -2.54427e-04 -1.32218e-03 -4.05036e-04
       H -4.72704e-03  3.43808e-03  5.66392e-04
       H -4.77735e-03 -6.39119e-04  2.41047e-03
       O -1.38978e-03 -1.35038e-03  6.08640e-04
       H -9.08276e-03 -2.27680e-03 -3.68021e-03
       H  6.21304e-03 -1.72887e-04  4.07725e-03
       O -9.13267e-04  3.78932e-04  4.65036e-04
       H -5.78397e-03  6.68704e-03 -3.10361e-03
       H -2.21476e-03  8.50638e-04 -6.21662e-03
192
# CELL(abcABC):   16.99620    29.43815    27.67315    90.00000    90.00000    90.00000  Step:          20  Bead:      12 velocities{atomic_unit}  cell{atomic_unit}
       O  1.83497e-03  5.92007e-04  2.45277e-04
       H -5.34763e-03 -6.55099e-03  2.49046e-03
       H  2.05525e-03 -1.25386e-03  4.64176e-03
       O -6.27979e-04 -8.65476e-05  1.03560e-03
       H  3.18755e-04  6.17048e-03  2.03708e-03
       H  5.55669e-03  5.68906e-03  1.22560e-03
       O -2.37723e-04  1.23970e-03  6.55090e-04
       H -1.56834e-03 -3.47401e-03  3.13136e-03
       H  5.15400e-03 -5.49415e-04  3.22187e-03
       O  8.05822e-04 -3.39024e-04  4.84883e-04
       H  2.92537e-04 -5.08560e-03  2.15572e-05
       H -3.30977e-03  9.76667e-04 -1.66149e-03
       O -6.65818e-04  1.28786e-03  1.30577e-03
       H  4.01697e-03  8.11484e-04  1.38311e-03
       H -2.27840e-03 -2.31002e-03  1.77607e-04
       O  8.11009e-04  2.72130e-03 -1.15138e-03
       H  3.18484e-04 -4.69132e-03  4.53192e-04
       H -2.69046e-03 -5.03216e-03  8.35546e-04
       O  8.08125e-04  6.15349e-04 -8.64193e-04
       H  2.78370e-04 -5.40527e-03  3.18673e-04
       H  3.21321e-03  3.48376e-04  4.59213e-03
       O -2.12896e-04 -1.56138e-03  4.45857e-04
       H -1.79492e-03  7.27044e-03  9.05240e-04
       H  1.96595e-04  6.37998e-03  6.65026e-04
       O  7.24196e-04 -6.91730e-04 -4.26303e-04
       H  1.52558e-03  1.57481e-03  9.60819e-03
       H -4.13610e-03 -1.78635e-03 -4.80098e-03
       O -4.56853e-04 -3.93496e-04  1.24761e-04
       H -3.72948e-03  8.17574e-04  6.48020e-03
       H  5.65481e-03 -1.62290e-03 -4.42071e-04
       O -9.16252e-04  1.75138e-05 -5.55972e-04
       H  3.76773e-03  1.44834e-03  1.10726e-04
       H -4.67908e-03 -1.35865e-03  4.70825e-03
       O  8.37452e-05 -1.31205e-03 -7.64530e-04
       H  4.86544e-03  2.55822e-03  5.31222e-03
       H  3.14325e-03  4.53260e-03 -1.05094e-03
       O  1.53832e-04  1.53169e-03 -1.17998e-03
       H  4.30545e-03 -2.39727e-04  2.30140e-03
       H -8.62849e-03 -1.21025e-03 -1.36952e-03
       O  7.41755e-04  1.50285e-03 -6.20081e-05
       H -2.54371e-03 -3.19310e-03 -4.30891e-04
       H  3.33969e-05  1.49846e-03 -3.30489e-03
       O -9.31438e-04 -6.91175e-04 -1.13565e-04
       H -4.82621e-03  3.96297e-03  4.63558e-03
       H -1.85072e-03  1.10332e-03 -1.39731e-03
       O -1.10708e-03 -5.17639e-04  2.22595e-04
       H -3.31908e-03  1.57335e-03  2.92323e-03
       H -4.93885e-03  1.72973e-03  7.89825e-03
       O -7.82291e-04 -4.73515e-04  9.71782e-04
       H -2.73021e-03 -7.29255e-04  5.88427e-03
       H  3.30530e-03 -2.10351e-04  6.72236e-03
       O -1.03343e-03 -3.32416e-04 -2.94522e-05
       H  5.74245e-03  6.53218e-03 -3.27504e-03
       H  2.45379e-03  1.32026e-04  2.38474e-03
       O  2.01350e-03 -1.34758e-03 -1.13246e-03
       H  4.55035e-03 -3.95901e-03  1.45328e-03
       H  3.43821e-03 -6.83316e-03 -2.24124e-03
       O  6.36045e-04 -5.01971e-04  1.21564e-03
       H -9.69882e-04  4.92574e-03  3.50052e-03
       H  2.88763e-04 -4.38615e-03 -3.72426e-03
       O  6.69846e-04 -6.24281e-04 -6.09433e-04
       H  7.34924e-03  2.26665e-03  3.19327e-03
       H  2.15395e-03 -5.91460e-03  3.24364e-05
       O -6.44301e-04 -1.58773e-04  7.35266e-04
       H -1.23586e-03  2.38123e-03  8.65650e-05
       H  2.54192e-03  2.74122e-03  4.48807e-03
       O -3.61916e-04  1.11369e-03 -8.58270e-04
       H -4.79033e-03  1.06600e-03 -3.03058e-03
       H  5.76660e-04 -1.28082e-03 -3.96230e-03
       O -1.29580e-03  1.46100e-03  8.97484e-04
       H -1.94392e-03 -9.70009e-04  6.95110e-04
       H  8.32100e-04  7.64580e-04 -3.86542e-03
       O -2.04937e-04  3.08161e-04  6.28189e-04
       H -1.10028e-03 -6.41423e-03 -7.05551e-03
       H -1.10748e-03  1.10845e-03  3.16811e-03
       O -5.81625e-04 -2.11031e-03 -6.96607e-04
       H  2.56874e-03 -3.42171e-03  3.71947e-03
       H  2.59624e-03 -8.86926e-04  1.80673e-03
       O  5.87923e-04  2.52951e-04 -1.46388e-04
       H -6.62224e-03  1.19471e-03  6.76298e-04
       H  2.52685e-03 -4.91283e-03  4.11682e-03
       O -2.11498e-04 -3.26468e-04  1.34350e-03
       H  1.60221e-03 -3.12454e-03  2.55188e-03
       H  1.25379e-03 -4.82239e-03 -1.00933e-03
       O  4.90151e-04 -6.19951e-04  1.59173e-03
       H -3.15275e-03  4.15508e-04  1.00299e-03
       H  3.08210e-03  1.57990e-03 -4.95118e-03
       O -7.16042e-05 -1.16617e-03 -1.68838e-04
       H -6.75742e-04  4.43981e-03 -6.59160e-03
       H  8.52068e-05  6.05797e-03  3.42823e-03
       O  8.21984e-04 -1.21885e-03 -4.26284e-04
       H -4.72620e-04 -2.32297e-03  1.13781e-03
       H  1.76148e-04  2.97347e-04  3.08576e-03
       O  1.41687e-04  1.12516e-03 -1.56345e-04
       H -9.09381e-04 -2.19602e-03 -2.95611e-03
       H -3.95047e-03 -3.40227e-03 -3.78168e-03
       O -1.18481e-03  5.51936e-04  3.24127e-04
       H  1.75149e-03  4.20380e-03  1.13368e-02
       H -2.00417e-03 -1.83660e-03 -5.84482e-04
       O -1.71646e-03  5.87660e-04  7.97761e-04
       H  3.73474e-03  1.39677e-03 -1.93706e-03
       H  3.45891e-03 -2.20104e-04 -1.39323e-03
       O  3.58442e-04  1.01881e-03 -4.54614e-04
       H  1.60477e-03  2.77667e-03  4.08195e-03
       H  1.27944e-03 -2.36727e-03  3.50150e-04
       O -1.68591e-03  1.05110e-03 -5.15346e-05
       H  4.10836e-03  5.29739e-03  4.91124e-03
       H -4.11469e-03 -7.36947e-04 -5.21860e-03
       O -7.36268e-04 -8.77702e-05 -1.54985e-05
       H  1.95464e-03 -1.65133e-03 -7.79438e-04
       H -1.87758e-03 -3.59172e-03 -3.68208e-03
       O -3.50581e-04  2.83720e-04  1.16376e-03
       H  1.23018e-03 -9.83944e-03  4.22917e-03
       H  5.23719e-03 -2.46362e-03  2.03990e-03
       O  1.89551e-04  1.51347e-04 -3.36414e-04
       H -1.42797e-03 -2.55840e-03  1.10452e-03
       H  2.00127e-03  6.92169e-04  4.26930e-04
       O -7.37657e-04 -4.58431e-05  2.05931e-04
       H  4.41210e-03 -2.43363e-03 -3.06384e-03
       H -2.31576e-03  5.35169e-03 -1.97186e-04
       O  4.53622e-04  2.73672e-05 -1.18186e-03
       H  1.17084e-03 -1.41093e-03  1.69300e-03
       H -4.19634e-03  3.49520e-04  6.77181e-03
       O  2.96620e-04  2.24050e-04  2.53379e-04
       H  3.35875e-04  4.25055e-04  3.67777e-03
       H  8.48264e-03 -7.21067e-03  6.73231e-04
       O -3.64701e-04  5.88098e-04  3.82495e-04
       H -2.16394e-03  5.36698e-03 -3.34679e-03
       H -1.80153e-03  8.01001e-04 -5.12705e-03
       O -6.46915e-04 -1.11020e-03  1.45660e-04
       H  8.95763e-05 -3.47956e-03  5.75024e-05
       H  1.23419e-03 -1.67928e-03 -3.82021e-03
       O -1.34834e-03  8.74025e-04  2.51656e-05
       H -2.32761e-03 -5.71932e-04  3.14723e-03
       H  2.90782e-03  4.50368e-04  5.78696e-03
       O  5.87470e-04  1.12180e-03 -2.12955e-03
       H  3.26965e-03 -8.92674e-04  1.96417e-03
       H  5.42158e-03  8.52371e-03 -5.03972e-03
       O  1.26681e-03  5.98152e-04 -1.64907e-03
       H -6.29993e-03 -3.97854e-03  1.65539e-03
       H  1.92537e-03  9.26156e-04 -5.64325e-03
       O -1.61491e-03  7.52125e-04 -1.69820e-03
       H  5.29951e-03  4.07074e-03 -5.20323e-03
       H -1.64132e-05 -1.05014e-03 -8.42325e-04
       O  6.09311e-06 -1.18429e-03  6.38359e-04
       H -7.37466e-03  1.21924e-03  5.65179e-03
       H  1.17434e-03 -1.76140e-03  3.86540e-03
       O -2.01753e-04  2.18586e-04 -8.64338e-04
       H  3.35017e-03 -1.44284e-03 -3.82460e-03
       H  1.60164e-03 -4.71118e-03  4.49733e-03
       O -1.13714e-03  8.29776e-04  5.21411e-04
       H  6.65694e-04 -1.20453e-03  5.25705e-03
       H  3.69923e-03 -1.88445e-03  6.07364e-04
       O -2.87272e-04  8.33007e-04 -3.25392e-04
       H  1.43197e-03  2.71325e-03 -1.70170e-03
       H  2.50872e-03  7.94209e-03  7.10937e-03
       O -1.74733e-04 -6.22742e-04  1.51018e-03
       H -1.38108e-03 -3.25300e-03 -2.21164e-03
       H -7.99147e-04  4.64455e-03 -1.33849e-03
       O  5.40439e-04  7.88904e-04 -1.28581e-04
       H  2.46412e-03  1.47257e-04  1.53273e-03
       H  5.40776e-03  5.19720e-03  1.10100e-03
       O -5.67432e-04 -3.66537e-04  4.90087e-04
       H  5.05970e-03  5.13526e-04 -1.11133e-03
       H -6.32831e-03  5.03470e-03 -4.46282e-04
       O -1.06787e-03  6.59723e-05 -2.33942e-03
       H  5.63718e-03 -7.11421e-03  2.09330e-04
       H -2.75796e-03  6.99427e-03 -1.11134e-03
       O  1.25594e-03 -2.67692e-04 -1.09477e-03
       H -2.69733e-03 -8.71636e-05  7.57348e-04
       H -5.82348e-04  7.92866e-03 -1.49092e-03
       O  1.08865e-04 -1.17815e-03  7.81954e-04
       H  6.84188e-03 -5.94596e-04  2.78637e-03
       H -3.36475e-03  2.08789e-03 -1.09947e-03
       O -8.56308e-05  3.55413e-04  1.71696e-03
       H  1.79815e-03  4.40019e-03 -1.35850e-03
       H  3.78055e-03  4.80167e-03  2.60484e-03
       O -1.21952e-03  7.62167e-04 -1.34378e-03
       H  2.19052e-03  1.54852e-03 -8.27701e-03
       H -3.72949e-04  4.71118e-03 -4.68798e-04
       O -1.40352e-03 -6.36397e-04 -4.07996e-04
       H -1.93992e-03  5.16739e-04  1.51646e-03
       H  1.37347e-03 -2.98104e-03  2.06890e-03
       O  5.82219e-04  2.64861e-04  1.06456e-03
       H  4.25678e-03 -2.01753e-03  4.79237e-03
       H  3.68979e-03  2.99666e-03 -3.06107e-03
       O -1.32817e-03  1.13735e-03  5.32984e-04
       H -2.77489e-03  3.32002e-03  1.75851e-04
       H  1.35008e-03 -2.16842e-03  2.77905e-04
       O  6.75366e-04 -2.01158e-04 -2.73131e-04
       H -1.40988e-03  4.54207e-04 -4.72256e-03
       H  1.78169e-03  2.21946e-03 -6.61777e-03
192
# CELL(abcABC):   16.99620    29.43815    27.67315    90.00000    90.00000    90.00000  Step:          30  Bead:      12 velocities{atomic_unit}  cell{atomic_unit}
       O  5.72369e-04  9.11911e-04  1.42230e-03
       H  6.17648e-03  4.73021e-03  2.02827e-04
       H -5.26006e-03  1.73507e-03 -2.54980e-03
       O  6.57920e-04 -1.19479e-03 -7.22432e-04
       H -2.65722e-03  1.34908e-03 -3.34578e-03
       H  1.47526e-03  2.23469e-03  2.02777e-04
       O -1.14887e-04  1.19488e-05 -4.36186e-04
       H -7.61274e-04  1.78017e-03 -4.21205e-03
       H -4.86670e-03  1.53162e-03  1.23159e-03
       O -2.49146e-04  1.62296e-03  1.63496e-03
       H  3.07917e-03  2.03771e-03  9.49207e-04
       H -3.38545e-03  2.30256e-03 -2.78914e-03
       O  1.64599e-03  1.34525e-04  8.46257e-04
       H -1.84474e-03 -4.06143e-03 -1.86590e-03
       H  6.76310e-03 -1.85670e-03  4.46597e-03
       O  5.95986e-04  1.38749e-03 -8.80412e-05
       H  4.39683e-03  2.95903e-03  7.47980e-05
       H  1.19556e-04  3.13409e-03  4.07519e-03
       O -3.03036e-04  5.96219e-05  3.04810e-04
       H -6.98365e-04  4.03136e-03 -1.52668e-03
       H -2.79375e-03 -2.53886e-03  3.41837e-03
       O  8.85300e-04 -7.92182e-04  1.30136e-04
       H  5.82313e-03 -2.60502e-03  5.28451e-03
       H -4.48281e-03 -2.06439e-03  2.59462e-03
       O -9.61713e-04 -8.80020e-05  3.55992e-04
       H -4.92078e-04  6.79967e-03 -2.78325e-03
       H  7.12827e-04  3.09230e-04  3.68104e-03
       O  1.72714e-03 -2.75511e-04  3.14809e-03
       H  1.68704e-03  7.10446e-03 -2.09781e-03
       H  1.50599e-03 -2.10800e-03 -5.45551e-04
       O  4.33446e-04 -1.61175e-03 -7.94278e-04
       H  2.04293e-03 -2.97655e-03  4.60762e-03
       H -4.56420e-03 -1.17390e-03 -4.26860e-03
       O -1.00118e-03 -5.97420e-04  1.66158e-04
       H -2.97631e-03  1.30267e-03 -4.92207e-03