192
# CELL(abcABC):   16.99620    29.43815    27.67315    90.00000    90.00000    90.00000  Step:           0  Bead:      13 positions{atomic_unit}  cell{atomic_unit}
       O -8.21943e+00 -9.93714e+00 -1.31733e+01
       H  7.30975e+00 -1.09659e+01 -1.36333e+01
       H -6.70309e+00 -1.09427e+01 -1.35003e+01
       O -3.97045e+00 -2.57760e+00 -1.31733e+01
       H -5.43740e+00 -3.60640e+00 -1.36335e+01
       H -2.45410e+00 -3.58307e+00 -1.35002e+01
       O -3.95479e+00 -1.25494e+01 -7.82537e-01
       H -3.95303e+00 -1.43463e+01 -2.27998e-01
       H -4.14654e+00 -1.25640e+01 -2.59980e+00
       O -8.20381e+00 -5.18980e+00 -7.82573e-01
       H -8.20206e+00 -6.98662e+00 -2.28079e-01
       H -8.39554e+00 -5.20430e+00 -2.59985e+00
       O -4.52774e+00 -1.21415e+01 -6.25501e+00
       H -6.04401e+00 -1.11359e+01 -6.58198e+00
       H -3.06070e+00 -1.11128e+01 -6.71509e+00
       O  8.21948e+00 -4.78197e+00 -6.25503e+00
       H  6.70316e+00 -3.77646e+00 -6.58191e+00
       H -7.30970e+00 -3.75321e+00 -6.71514e+00
       O  8.20373e+00 -9.52922e+00 -7.70081e+00
       H  8.39566e+00 -9.51468e+00 -9.51806e+00
       H  8.20220e+00 -7.73240e+00 -7.14624e+00
       O -4.54345e+00 -2.16975e+00 -7.70084e+00
       H -4.35162e+00 -2.15526e+00 -9.51812e+00
       H -4.54503e+00 -3.72917e-01 -7.14634e+00
       O -8.21943e+00 -9.93697e+00  6.63195e-01
       H  7.30977e+00 -1.09657e+01  2.03202e-01
       H -6.70308e+00 -1.09425e+01  3.36227e-01
       O -3.97044e+00 -2.57760e+00  6.63173e-01
       H -5.43747e+00 -3.60635e+00  2.03069e-01
       H -2.45410e+00 -3.58312e+00  3.36346e-01
       O -3.95472e+00 -1.25494e+01  1.30540e+01
       H -3.95309e+00 -1.43462e+01  1.36086e+01
       H -4.14653e+00 -1.25640e+01  1.12368e+01
       O -8.20380e+00 -5.18990e+00  1.30541e+01
       H -8.20202e+00 -6.98672e+00  1.36085e+01
       H -8.39553e+00 -5.20434e+00  1.12368e+01
       O -4.52771e+00 -1.21415e+01  7.58159e+00
       H -6.04402e+00 -1.11360e+01  7.25460e+00
       H -3.06070e+00 -1.11128e+01  7.12152e+00
       O  8.21944e+00 -4.78191e+00  7.58149e+00
       H  6.70312e+00 -3.77633e+00  7.25453e+00
       H -7.30974e+00 -3.75322e+00  7.12139e+00
       O  8.20378e+00 -9.52926e+00  6.13582e+00
       H  8.39564e+00 -9.51474e+00  4.31856e+00
       H  8.20221e+00 -7.73246e+00  6.69037e+00
       O -4.54344e+00 -2.16971e+00  6.13568e+00
       H -4.35161e+00 -2.15522e+00  4.31840e+00
       H -4.54506e+00 -3.72896e-01  6.69017e+00
       O -8.21947e+00  4.78210e+00 -1.31734e+01
       H  7.30974e+00  3.75335e+00 -1.36334e+01
       H -6.70314e+00  3.77651e+00 -1.35002e+01
       O -3.97046e+00  1.21415e+01 -1.31733e+01
       H -5.43745e+00  1.11127e+01 -1.36334e+01
       H -2.45410e+00  1.11360e+01 -1.35002e+01
       O -3.95479e+00  2.16971e+00 -7.82462e-01
       H -3.95303e+00  3.72884e-01 -2.27933e-01
       H -4.14646e+00  2.15509e+00 -2.59975e+00
       O -8.20376e+00  9.52923e+00 -7.82499e-01
       H -8.20200e+00  7.73238e+00 -2.27998e-01
       H -8.39546e+00  9.51472e+00 -2.59977e+00
       O -4.52774e+00  2.57749e+00 -6.25512e+00
       H -6.04400e+00  3.58312e+00 -6.58197e+00
       H -3.06066e+00  3.60618e+00 -6.71512e+00
       O  8.21949e+00  9.93715e+00 -6.25509e+00
       H  6.70318e+00  1.09426e+01 -6.58202e+00
       H -7.30970e+00  1.09659e+01 -6.71526e+00
       O  8.20366e+00  5.18988e+00 -7.70077e+00
       H  8.39552e+00  5.20437e+00 -9.51803e+00
       H  8.20217e+00  6.98669e+00 -7.14625e+00
       O -4.54337e+00  1.25494e+01 -7.70088e+00
       H -4.35159e+00  1.25639e+01 -9.51817e+00
       H -4.54500e+00  1.43462e+01 -7.14634e+00
       O -8.21952e+00  4.78190e+00  6.63226e-01
       H  7.30971e+00  3.75313e+00  2.03107e-01
       H -6.70317e+00  3.77635e+00  3.36440e-01
       O -3.97040e+00  1.21415e+01  6.63326e-01
       H -5.43738e+00  1.11127e+01  2.03185e-01
       H -2.45407e+00  1.11360e+01  3.36426e-01
       O -3.95476e+00  2.16964e+00  1.30541e+01
       H -3.95303e+00  3.72832e-01  1.36087e+01
       H -4.14651e+00  2.15510e+00  1.12369e+01
       O -8.20373e+00  9.52937e+00  1.30540e+01
       H -8.20206e+00  7.73252e+00  1.36085e+01
       H -8.39548e+00  9.51483e+00  1.12368e+01
       O -4.52770e+00  2.57756e+00  7.58140e+00
       H -6.04399e+00  3.58315e+00  7.25450e+00
       H -3.06066e+00  3.60630e+00  7.12138e+00
       O  8.21951e+00  9.93714e+00  7.58157e+00
       H  6.70319e+00  1.09427e+01  7.25463e+00
       H -7.30968e+00  1.09658e+01  7.12140e+00
       O  8.20369e+00  5.18993e+00  6.13578e+00
       H  8.39547e+00  5.20441e+00  4.31850e+00
       H  8.20212e+00  6.98674e+00  6.69030e+00
       O -4.54348e+00  1.25494e+01  6.13570e+00
       H -4.35158e+00  1.25639e+01  4.31845e+00
       H -4.54503e+00  1.43462e+01  6.69025e+00
       O  2.78573e-01 -9.93717e+00 -1.31734e+01
       H -1.18842e+00 -1.09659e+01 -1.36336e+01
       H  1.79493e+00 -1.09427e+01 -1.35002e+01
       O  4.52772e+00 -2.57751e+00 -1.31733e+01
       H  3.06068e+00 -3.60627e+00 -1.36334e+01
       H  6.04403e+00 -3.58305e+00 -1.35003e+01
       O  4.54334e+00 -1.25494e+01 -7.82465e-01
       H  4.54513e+00 -1.43463e+01 -2.27989e-01
       H  4.35168e+00 -1.25640e+01 -2.59974e+00
       O  2.94294e-01 -5.18980e+00 -7.82487e-01
       H  2.96032e-01 -6.98663e+00 -2.28053e-01
       H  1.02602e-01 -5.20427e+00 -2.59977e+00
       O  3.97042e+00 -1.21415e+01 -6.25517e+00
       H  2.45414e+00 -1.11359e+01 -6.58198e+00
       H  5.43747e+00 -1.11128e+01 -6.71526e+00
       O -2.78672e-01 -4.78194e+00 -6.25508e+00
       H -1.79498e+00 -3.77636e+00 -6.58199e+00
       H  1.18837e+00 -3.75320e+00 -6.71514e+00
       O -2.94511e-01 -9.52920e+00 -7.70081e+00
       H -1.02600e-01 -9.51466e+00 -9.51806e+00
       H -2.96005e-01 -7.73240e+00 -7.14625e+00
       O  3.95462e+00 -2.16972e+00 -7.70080e+00
       H  4.14654e+00 -2.15521e+00 -9.51804e+00
       H  3.95318e+00 -3.72879e-01 -7.14628e+00
       O  2.78541e-01 -9.93701e+00  6.63104e-01
       H -1.18842e+00 -1.09658e+01  2.03011e-01
       H  1.79493e+00 -1.09425e+01  3.36333e-01
       O  4.52773e+00 -2.57757e+00  6.63187e-01
       H  3.06068e+00 -3.60633e+00  2.03125e-01
       H  6.04402e+00 -3.58308e+00  3.36357e-01
       O  4.54332e+00 -1.25494e+01  1.30541e+01
       H  4.54518e+00 -1.43462e+01  1.36086e+01
       H  4.35169e+00 -1.25640e+01  1.12368e+01
       O  2.94281e-01 -5.18991e+00  1.30541e+01
       H  2.95995e-01 -6.98675e+00  1.36085e+01
       H  1.02570e-01 -5.20435e+00  1.12368e+01
       O  3.97044e+00 -1.21415e+01  7.58145e+00
       H  2.45413e+00 -1.11360e+01  7.25466e+00
       H  5.43745e+00 -1.11128e+01  7.12135e+00
       O -2.78601e-01 -4.78191e+00  7.58148e+00
       H -1.79495e+00 -3.77634e+00  7.25458e+00
       H  1.18839e+00 -3.75323e+00  7.12138e+00
       O -2.94501e-01 -9.52922e+00  6.13582e+00
       H -1.02637e-01 -9.51466e+00  4.31854e+00
       H -2.96013e-01 -7.73241e+00  6.69035e+00
       O  3.95462e+00 -2.16967e+00  6.13570e+00
       H  4.14656e+00 -2.15516e+00  4.31844e+00
       H  3.95315e+00 -3.72836e-01  6.69024e+00
       O  2.78636e-01  4.78206e+00 -1.31735e+01
       H -1.18832e+00  3.75329e+00 -1.36335e+01
       H  1.79499e+00  3.77651e+00 -1.35003e+01
       O  4.52773e+00  1.21415e+01 -1.31733e+01
       H  3.06066e+00  1.11127e+01 -1.36334e+01
       H  6.04403e+00  1.11360e+01 -1.35003e+01
       O  4.54332e+00  2.16970e+00 -7.82499e-01
       H  4.54510e+00  3.72872e-01 -2.27973e-01
       H  4.35161e+00  2.15513e+00 -2.59979e+00
       O  2.94188e-01  9.52923e+00 -7.82517e-01
       H  2.95976e-01  7.73239e+00 -2.28033e-01
       H  1.02486e-01  9.51470e+00 -2.59980e+00
       O  3.97041e+00  2.57752e+00 -6.25508e+00
       H  2.45414e+00  3.58307e+00 -6.58188e+00
       H  5.43747e+00  3.60626e+00 -6.71516e+00
       O -2.78677e-01  9.93714e+00 -6.25506e+00
       H -1.79497e+00  1.09427e+01 -6.58203e+00
       H  1.18838e+00  1.09659e+01 -6.71517e+00
       O -2.94451e-01  5.18990e+00 -7.70074e+00
       H -1.02475e-01  5.20442e+00 -9.51799e+00
       H -2.95971e-01  6.98671e+00 -7.14623e+00
       O  3.95453e+00  1.25494e+01 -7.70088e+00
       H  4.14650e+00  1.25638e+01 -9.51813e+00
       H  3.95314e+00  1.43462e+01 -7.14638e+00
       O  2.78666e-01  4.78190e+00  6.63181e-01
       H -1.18838e+00  3.75314e+00  2.03219e-01
       H  1.79499e+00  3.77637e+00  3.36305e-01
       O  4.52768e+00  1.21415e+01  6.63233e-01
       H  3.06065e+00  1.11127e+01  2.03130e-01
       H  6.04402e+00  1.11359e+01  3.36318e-01
       O  4.54337e+00  2.16963e+00  1.30541e+01
       H  4.54515e+00  3.72778e-01  1.36085e+01
       H  4.35165e+00  2.15511e+00  1.12368e+01
       O  2.94139e-01  9.52935e+00  1.30540e+01
       H  2.96028e-01  7.73252e+00  1.36085e+01
       H  1.02508e-01  9.51480e+00  1.12368e+01
       O  3.97044e+00  2.57752e+00  7.58146e+00
       H  2.45409e+00  3.58312e+00  7.25468e+00
       H  5.43745e+00  3.60627e+00  7.12136e+00
       O -2.78642e-01  9.93713e+00  7.58156e+00
       H -1.79498e+00  1.09426e+01  7.25459e+00
       H  1.18834e+00  1.09658e+01  7.12145e+00
       O -2.94462e-01  5.18993e+00  6.13575e+00
       H -1.02485e-01  5.20444e+00  4.31854e+00
       H -2.95928e-01  6.98677e+00  6.69031e+00
       O  3.95461e+00  1.25493e+01  6.13580e+00
       H  4.14651e+00  1.25638e+01  4.31854e+00
       H  3.95313e+00  1.43462e+01  6.69028e+00
192
# CELL(abcABC):   16.99620    29.43815    27.67315    90.00000    90.00000    90.00000  Step:          10  Bead:      13 positions{atomic_unit}  cell{atomic_unit}
       O -8.28808e+00 -9.98386e+00 -1.31833e+01
       H  7.22388e+00 -1.09040e+01 -1.37001e+01
       H -6.77875e+00 -1.11462e+01 -1.36273e+01
       O -3.96937e+00 -2.59685e+00 -1.31553e+01
       H -5.45747e+00 -3.66507e+00 -1.35727e+01
       H -2.44848e+00 -3.65603e+00 -1.36125e+01
       O -3.95159e+00 -1.25309e+01 -7.84230e-01
       H -4.02164e+00 -1.42328e+01 -2.23951e-01
       H -4.22892e+00 -1.25862e+01 -2.61148e+00
       O -8.19732e+00 -5.16893e+00 -7.68105e-01
       H -8.20796e+00 -6.92374e+00 -3.67237e-01
       H -8.32548e+00 -5.20058e+00 -2.64319e+00
       O -4.49597e+00 -1.21715e+01 -6.23242e+00
       H -6.19488e+00 -1.10146e+01 -6.55557e+00
       H -2.94694e+00 -1.11722e+01 -6.73933e+00
       O  8.18640e+00 -4.78576e+00 -6.27450e+00
       H  6.81881e+00 -3.74511e+00 -6.65212e+00
       H -7.27554e+00 -3.82336e+00 -6.76205e+00
       O  8.21538e+00 -9.52493e+00 -7.70416e+00
       H  8.23149e+00 -9.54956e+00 -9.46272e+00
       H  8.03099e+00 -7.72754e+00 -7.10494e+00
       O -4.53676e+00 -2.12461e+00 -7.73177e+00
       H -4.36216e+00 -2.03001e+00 -9.65117e+00
       H -4.61371e+00 -3.32049e-01 -7.13373e+00
       O -8.21424e+00 -9.94382e+00  6.59470e-01
       H  7.29885e+00 -1.08818e+01  2.49164e-01
       H -6.71326e+00 -1.09521e+01  2.75118e-01
       O -3.96275e+00 -2.58392e+00  7.06432e-01
       H -5.32838e+00 -3.67438e+00  1.66227e-01
       H -2.61308e+00 -3.67279e+00  2.82915e-01
       O -3.97474e+00 -1.25121e+01  1.30648e+01
       H -3.90485e+00 -1.43928e+01  1.35628e+01
       H -4.12370e+00 -1.26614e+01  1.11021e+01
       O -8.15974e+00 -5.16687e+00  1.30904e+01
       H -8.31138e+00 -7.02134e+00  1.35454e+01
       H -8.37413e+00 -5.12147e+00  1.13526e+01
       O -4.51596e+00 -1.21402e+01  7.61172e+00
       H -6.16880e+00 -1.11428e+01  7.29530e+00
       H -3.11095e+00 -1.11997e+01  7.19853e+00
       O  8.21773e+00 -4.74686e+00  7.59139e+00
       H  6.63742e+00 -3.67610e+00  7.25582e+00
       H -7.29589e+00 -3.64542e+00  7.09974e+00
       O  8.25727e+00 -9.49195e+00  6.14089e+00
       H  8.24910e+00 -9.51360e+00  4.33499e+00
       H  8.12837e+00 -7.70310e+00  6.65405e+00
       O -4.51797e+00 -2.12876e+00  6.16645e+00
       H -4.33469e+00 -2.33565e+00  4.24501e+00
       H -4.58642e+00 -4.92686e-01  6.62935e+00
       O -8.23226e+00  4.75510e+00 -1.31864e+01
       H  7.40241e+00  3.90208e+00 -1.35131e+01
       H -6.82698e+00  3.60970e+00 -1.35353e+01
       O -3.98324e+00  1.21219e+01 -1.31911e+01
       H -5.48716e+00  1.09820e+01 -1.37668e+01
       H -2.44904e+00  1.10522e+01 -1.32587e+01
       O -3.94857e+00  2.13821e+00 -8.19244e-01
       H -4.11553e+00  3.71891e-01 -1.96713e-01
       H -4.09014e+00  2.05429e+00 -2.53533e+00
       O -8.24685e+00  9.53207e+00 -7.88934e-01
       H -8.08995e+00  7.59338e+00 -3.15634e-01
       H -8.41067e+00  9.63726e+00 -2.73589e+00
       O -4.50893e+00  2.56584e+00 -6.24623e+00
       H -6.07353e+00  3.49947e+00 -6.54582e+00
       H -3.20388e+00  3.74235e+00 -6.83162e+00
       O  8.22587e+00  9.95771e+00 -6.20686e+00
       H  6.69146e+00  1.07356e+01 -6.61353e+00
       H -7.32530e+00  1.08829e+01 -6.52090e+00
       O  8.17169e+00  5.21282e+00 -7.69134e+00
       H  8.48527e+00  5.21509e+00 -9.69137e+00
       H  8.20435e+00  7.04857e+00 -7.03929e+00
       O -4.55003e+00  1.24874e+01 -7.71527e+00
       H -4.42893e+00  1.26586e+01 -9.53378e+00
       H -4.57682e+00  1.44176e+01 -7.28591e+00
       O -8.21879e+00  4.78805e+00  6.29456e-01
       H  7.33250e+00  3.72565e+00  2.58992e-01
       H -6.58174e+00  3.65505e+00  5.37336e-01
       O -3.94416e+00  1.21396e+01  6.44372e-01
       H -5.44452e+00  1.10593e+01  1.66954e-01
       H -2.41427e+00  1.12506e+01  3.98543e-01
       O -3.96866e+00  2.16769e+00  1.30791e+01
       H -3.84524e+00  3.71447e-01  1.34699e+01
       H -4.34041e+00  2.05524e+00  1.12270e+01
       O -8.20994e+00  9.57393e+00  1.30080e+01
       H -8.25117e+00  7.75463e+00  1.36483e+01
       H -8.51095e+00  9.39031e+00  1.12869e+01
       O -4.50102e+00  2.58539e+00  7.55888e+00
       H -5.91440e+00  3.51196e+00  7.24362e+00
       H -3.01908e+00  3.56624e+00  7.05155e+00
       O  8.22187e+00  9.92896e+00  7.56430e+00
       H  6.71341e+00  1.08710e+01  7.28115e+00
       H -7.22183e+00  1.07946e+01  7.21009e+00
       O  8.18270e+00  5.19488e+00  6.11691e+00
       H  8.34292e+00  5.21749e+00  4.33781e+00
       H  8.22340e+00  7.13558e+00  6.74888e+00
       O -4.57155e+00  1.25413e+01  6.12532e+00
       H -4.46002e+00  1.25120e+01  4.36690e+00
       H -4.46474e+00  1.43133e+01  6.83968e+00
       O  3.12762e-01 -9.93627e+00 -1.31992e+01
       H -1.08885e+00 -1.08843e+01 -1.37349e+01
       H  1.79312e+00 -1.09508e+01 -1.34246e+01
       O  4.53349e+00 -2.58294e+00 -1.31615e+01
       H  3.11411e+00 -3.54710e+00 -1.37356e+01
       H  5.97968e+00 -3.48150e+00 -1.34107e+01
       O  4.53274e+00 -1.25542e+01 -7.30447e-01
       H  4.54640e+00 -1.44196e+01 -3.35305e-01
       H  4.33987e+00 -1.26693e+01 -2.57043e+00
       O  2.41888e-01 -5.19881e+00 -7.62917e-01
       H  3.98747e-01 -6.98928e+00 -2.71683e-01
       H  4.95541e-02 -5.21746e+00 -2.50954e+00
       O  3.95857e+00 -1.21592e+01 -6.28334e+00
       H  2.46493e+00 -1.10404e+01 -6.72410e+00
       H  5.53044e+00 -1.09645e+01 -6.70570e+00
       O -2.63362e-01 -4.78402e+00 -6.27870e+00
       H -1.81516e+00 -3.67454e+00 -6.58214e+00
       H  1.13403e+00 -3.81285e+00 -6.66427e+00
       O -2.41405e-01 -9.58173e+00 -7.66985e+00
       H -1.65584e-01 -9.62756e+00 -9.67909e+00
       H -2.03749e-01 -7.77018e+00 -7.23150e+00
       O  3.96214e+00 -2.19151e+00 -7.72939e+00
       H  4.23285e+00 -2.10647e+00 -9.41865e+00
       H  4.05264e+00 -4.82361e-01 -7.17188e+00
       O  2.89061e-01 -9.93861e+00  6.77590e-01
       H -1.14405e+00 -1.09331e+01  2.96856e-01
       H  1.91590e+00 -1.10002e+01  3.26618e-01
       O  4.53382e+00 -2.60740e+00  6.55341e-01
       H  3.21115e+00 -3.52923e+00  2.92538e-01
       H  6.07604e+00 -3.58775e+00  1.80657e-01
       O  4.57807e+00 -1.25209e+01  1.30927e+01
       H  4.73329e+00 -1.44209e+01  1.36466e+01
       H  4.17229e+00 -1.27883e+01  1.11467e+01
       O  2.57524e-01 -5.20131e+00  1.29882e+01
       H  3.16373e-01 -7.02257e+00  1.35462e+01
       H  5.89968e-02 -5.18773e+00  1.12652e+01
       O  3.94567e+00 -1.21204e+01  7.57430e+00
       H  2.43417e+00 -1.11671e+01  7.31873e+00
       H  5.42674e+00 -1.11319e+01  7.05510e+00
       O -2.45603e-01 -4.74189e+00  7.60644e+00
       H -1.92244e+00 -3.54807e+00  7.33463e+00
       H  1.03990e+00 -3.69520e+00  7.26589e+00
       O -3.08362e-01 -9.53074e+00  6.10397e+00
       H -1.80629e-01 -9.32910e+00  4.14942e+00
       H -2.24809e-01 -7.85731e+00  6.76924e+00
       O  3.95565e+00 -2.20588e+00  6.11203e+00
       H  4.24817e+00 -2.05178e+00  4.30415e+00
       H  3.99238e+00 -2.08286e-01  6.74619e+00
       O  2.55240e-01  4.80159e+00 -1.31383e+01
       H -1.17496e+00  3.73236e+00 -1.36629e+01
       H  1.76187e+00  3.70333e+00 -1.35328e+01
       O  4.54800e+00  1.21468e+01 -1.31594e+01
       H  3.07297e+00  1.10831e+01 -1.34503e+01
       H  6.08012e+00  1.13044e+01 -1.35078e+01
       O  4.52696e+00  2.18976e+00 -7.80134e-01
       H  4.64202e+00  4.12269e-01 -3.15157e-02
       H  4.37721e+00  2.13879e+00 -2.57492e+00
       O  2.98640e-01  9.55042e+00 -7.81954e-01
       H  2.40298e-01  7.76385e+00 -2.41204e-01
       H  8.83121e-02  9.55395e+00 -2.59319e+00
       O  3.96332e+00  2.58228e+00 -6.23524e+00
       H  2.48623e+00  3.59645e+00 -6.61776e+00
       H  5.60277e+00  3.61794e+00 -6.75308e+00
       O -2.54936e-01  9.94644e+00 -6.28399e+00
       H -1.74807e+00  1.09554e+01 -6.74870e+00
       H  1.30816e+00  1.09518e+01 -6.94148e+00
       O -3.03882e-01  5.21177e+00 -7.68444e+00
       H -5.82917e-02  5.30266e+00 -9.41581e+00
       H -2.50780e-01  6.96931e+00 -7.23747e+00
       O  3.96370e+00  1.25641e+01 -7.66021e+00
       H  3.99270e+00  1.25008e+01 -9.56378e+00
       H  4.17526e+00  1.43399e+01 -7.25535e+00
       O  2.64384e-01  4.77783e+00  6.92084e-01
       H -1.08544e+00  3.68741e+00  2.11412e-01
       H  1.73756e+00  3.58650e+00  3.97099e-01
       O  4.52909e+00  1.21427e+01  6.83490e-01
       H  3.10049e+00  1.11499e+01  1.23420e-01
       H  6.02080e+00  1.09606e+01  3.78046e-01
       O  4.54668e+00  2.17476e+00  1.30498e+01
       H  4.48762e+00  2.12555e-01  1.36302e+01
       H  4.31196e+00  2.11494e+00  1.11771e+01
       O  3.25777e-01  9.53364e+00  1.30602e+01
       H  2.66772e-01  7.99151e+00  1.37456e+01
       H  2.04364e-01  9.44795e+00  1.12078e+01
       O  3.99954e+00  2.53266e+00  7.59013e+00
       H  2.51580e+00  3.63926e+00  7.13848e+00
       H  5.47235e+00  3.62065e+00  7.14560e+00
       O -2.99591e-01  9.91101e+00  7.55017e+00
       H -1.80570e+00  1.08491e+01  7.38125e+00
       H  1.28393e+00  1.09386e+01  7.08680e+00
       O -3.37582e-01  5.18649e+00  6.14152e+00
       H -2.85135e-01  5.14878e+00  4.44284e+00
       H -3.49123e-01  7.03286e+00  6.59360e+00
       O  3.97858e+00  1.24998e+01  6.15824e+00
       H  4.02639e+00  1.26616e+01  4.32230e+00
       H  3.94174e+00  1.44853e+01  6.94922e+00
192
# CELL(abcABC):   16.99620    29.43815    27.67315    90.00000    90.00000    90.00000  Step:          20  Bead:      13 positions{atomic_unit}  cell{atomic_unit}
       O -8.23607e+00 -1.00391e+01 -1.31503e+01
       H  7.13369e+00 -1.08367e+01 -1.36717e+01
       H -6.84269e+00 -1.12911e+01 -1.36651e+01
       O -3.98340e+00 -2.56829e+00 -1.31615e+01
       H -5.39999e+00 -3.90690e+00 -1.35389e+01
       H -2.50123e+00 -3.61208e+00 -1.36192e+01
       O -3.93567e+00 -1.25243e+01 -7.81124e-01
       H -3.97157e+00 -1.42159e+01 -1.63508e-01
       H -4.17819e+00 -1.26437e+01 -2.54097e+00
       O -8.16916e+00 -5.18527e+00 -7.80336e-01
       H -8.38101e+00 -6.87841e+00 -3.16866e-01
       H -8.32440e+00 -5.04857e+00 -2.76405e+00
       O -4.49173e+00 -1.21952e+01 -6.22291e+00
       H -6.16578e+00 -1.09457e+01 -6.55677e+00
       H -2.82794e+00 -1.13423e+01 -6.70437e+00
       O  8.20120e+00 -4.76432e+00 -6.24809e+00
       H  6.78532e+00 -3.78257e+00 -6.55539e+00
       H -7.10736e+00 -3.71127e+00 -7.10976e+00
       O  8.17438e+00 -9.52968e+00 -7.64942e+00
       H  8.26429e+00 -9.55262e+00 -9.47090e+00
       H  8.01819e+00 -7.59076e+00 -7.07117e+00
       O -4.53375e+00 -2.07059e+00 -7.72670e+00
       H -4.31256e+00 -1.91238e+00 -9.62338e+00
       H -4.61009e+00 -3.51623e-01 -7.14479e+00
       O -8.21161e+00 -9.94606e+00  6.28550e-01
       H  7.35231e+00 -1.07235e+01  2.24753e-01
       H -6.69784e+00 -1.08212e+01  2.24201e-01
       O -3.95559e+00 -2.64401e+00  7.27196e-01
       H -5.42039e+00 -3.70340e+00  2.03017e-01
       H -2.68228e+00 -3.70591e+00  3.97216e-01
       O -4.00167e+00 -1.24665e+01  1.30770e+01
       H -3.85306e+00 -1.45134e+01  1.35392e+01
       H -4.05085e+00 -1.25308e+01  1.11080e+01
       O -8.17426e+00 -5.12631e+00  1.30501e+01
       H -8.20164e+00 -7.00241e+00  1.36141e+01
       H -8.33541e+00 -5.08044e+00  1.11091e+01
       O -4.50307e+00 -1.21438e+01  7.61100e+00
       H -6.24586e+00 -1.10337e+01  7.39048e+00
       H -3.16868e+00 -1.12260e+01  6.91936e+00
       O  8.24830e+00 -4.70901e+00  7.58215e+00
       H  6.68508e+00 -3.64169e+00  7.38492e+00
       H -7.26741e+00 -3.66182e+00  7.06079e+00
       O  8.24953e+00 -9.50017e+00  6.14934e+00
       H  8.20203e+00 -9.45673e+00  4.35444e+00
       H  8.07017e+00 -7.63573e+00  6.68941e+00
       O -4.51501e+00 -2.12477e+00  6.14858e+00
       H -4.34451e+00 -2.30740e+00  4.23734e+00
       H -4.35722e+00 -4.46495e-01  6.56832e+00
       O -8.15537e+00  4.77897e+00 -1.32130e+01
       H  7.44432e+00  3.73241e+00 -1.32436e+01
       H -6.72351e+00  3.57550e+00 -1.34236e+01
       O -3.98593e+00  1.21096e+01 -1.32125e+01
       H -5.63324e+00  1.10318e+01 -1.38544e+01
       H -2.27894e+00  1.10876e+01 -1.33443e+01
       O -3.95150e+00  2.15790e+00 -8.13363e-01
       H -4.09533e+00  2.99052e-01 -2.11571e-01
       H -4.02232e+00  1.96272e+00 -2.75980e+00
       O -8.25629e+00  9.53275e+00 -7.78953e-01
       H -7.93540e+00  7.58029e+00 -2.58770e-01
       H -8.54089e+00  9.59944e+00 -2.59109e+00
       O -4.51093e+00  2.54103e+00 -6.27006e+00
       H -6.12231e+00  3.49287e+00 -6.44918e+00
       H -3.16609e+00  3.66332e+00 -6.73515e+00
       O  8.20685e+00  9.96490e+00 -6.18569e+00
       H  6.78843e+00  1.07789e+01 -6.57194e+00
       H -7.26970e+00  1.09141e+01 -6.44859e+00
       O  8.12419e+00  5.22073e+00 -7.68359e+00
       H  8.48066e+00  5.04270e+00 -9.54206e+00
       H  8.10716e+00  7.01801e+00 -6.96948e+00
       O -4.56082e+00  1.24561e+01 -7.74006e+00
       H -4.38276e+00  1.26864e+01 -9.60986e+00
       H -4.73490e+00  1.45561e+01 -7.33823e+00
       O -8.18409e+00  4.79727e+00  6.56868e-01
       H  7.43418e+00  3.87035e+00  2.39757e-01
       H -6.55773e+00  3.62291e+00  7.29103e-01
       O -3.95448e+00  1.20711e+01  6.17270e-01
       H -5.31450e+00  1.10344e+01  1.19070e-01
       H -2.45625e+00  1.11339e+01  4.88531e-01
       O -3.96521e+00  2.15787e+00  1.30888e+01
       H -3.92673e+00  4.58876e-01  1.33024e+01
       H -4.26778e+00  2.03157e+00  1.12713e+01
       O -8.18382e+00  9.56854e+00  1.30310e+01
       H -8.12196e+00  7.66636e+00  1.34134e+01
       H -8.69261e+00  9.18184e+00  1.13951e+01
       O -4.51855e+00  2.59482e+00  7.58652e+00
       H -5.77491e+00  3.39023e+00  7.24560e+00
       H -2.92910e+00  3.49487e+00  7.04414e+00
       O  8.23014e+00  9.90639e+00  7.55773e+00
       H  6.69503e+00  1.06929e+01  7.32243e+00
       H -7.22779e+00  1.08809e+01  7.37493e+00
       O  8.20489e+00  5.15411e+00  6.13528e+00
       H  8.13654e+00  5.48896e+00  4.39663e+00
       H  8.28345e+00  7.17905e+00  6.62314e+00
       O -4.59018e+00  1.25254e+01  6.14492e+00
       H -4.42049e+00  1.24028e+01  4.36801e+00
       H -4.43921e+00  1.45626e+01  6.98138e+00
       O  2.98543e-01 -9.91509e+00 -1.31995e+01
       H -1.17942e+00 -1.08787e+01 -1.37778e+01
       H  1.71383e+00 -1.10346e+01 -1.35276e+01
       O  4.54320e+00 -2.57545e+00 -1.31771e+01
       H  3.07993e+00 -3.48235e+00 -1.36325e+01
       H  5.99623e+00 -3.42222e+00 -1.34440e+01
       O  4.57187e+00 -1.25922e+01 -6.99283e-01
       H  4.46981e+00 -1.42764e+01 -2.72009e-01
       H  4.27791e+00 -1.26333e+01 -2.54735e+00
       O  2.35220e-01 -5.18648e+00 -7.53513e-01
       H  4.63908e-01 -7.14189e+00 -3.18633e-01
       H -5.95888e-02 -5.19265e+00 -2.52082e+00
       O  3.98957e+00 -1.21580e+01 -6.28388e+00
       H  2.40417e+00 -1.11151e+01 -6.75227e+00
       H  5.62821e+00 -1.08441e+01 -6.92564e+00
       O -2.48027e-01 -4.82361e+00 -6.30207e+00
       H -1.86399e+00 -3.70771e+00 -6.79019e+00
       H  1.17641e+00 -3.87508e+00 -6.64598e+00
       O -2.41910e-01 -9.64743e+00 -7.62234e+00
       H -2.53383e-01 -9.87520e+00 -9.75611e+00
       H -3.22579e-01 -7.89658e+00 -7.26674e+00
       O  3.91555e+00 -2.24759e+00 -7.75225e+00
       H  4.19801e+00 -2.17864e+00 -9.47631e+00
       H  3.98719e+00 -5.27648e-01 -6.98174e+00
       O  3.22207e-01 -9.95005e+00  6.88731e-01
       H -9.90864e-01 -1.10517e+01  3.09759e-01
       H  1.78910e+00 -1.11270e+01  2.05989e-01
       O  4.56097e+00 -2.63715e+00  6.39130e-01
       H  3.15477e+00 -3.44621e+00  3.49457e-01
       H  6.17631e+00 -3.45725e+00  2.60371e-01
       O  4.61659e+00 -1.24669e+01  1.30610e+01
       H  4.80960e+00 -1.44900e+01  1.36678e+01
       H  4.13636e+00 -1.28197e+01  1.13381e+01
       O  2.48392e-01 -5.18078e+00  1.29512e+01
       H  4.16187e-01 -7.03541e+00  1.35397e+01
       H  1.25442e-01 -5.24750e+00  1.13437e+01
       O  3.97688e+00 -1.21184e+01  7.56646e+00
       H  2.39690e+00 -1.12411e+01  7.31848e+00
       H  5.53124e+00 -1.11416e+01  7.01532e+00
       O -1.82214e-01 -4.73915e+00  7.57335e+00
       H -1.86364e+00 -3.63179e+00  7.47330e+00
       H  9.52996e-01 -3.75752e+00  7.36988e+00
       O -2.50916e-01 -9.52003e+00  6.08289e+00
       H -2.88116e-01 -9.00939e+00  4.20755e+00
       H -2.79033e-01 -7.99661e+00  6.80142e+00
       O  4.00078e+00 -2.25583e+00  6.09337e+00
       H  4.25318e+00 -1.89991e+00  4.27676e+00
       H  4.03384e+00 -2.47639e-01  6.82066e+00
       O  2.85195e-01  4.80896e+00 -1.30802e+01
       H -1.13620e+00  3.91957e+00 -1.36955e+01
       H  1.71278e+00  3.75403e+00 -1.37472e+01
       O  4.55274e+00  1.21715e+01 -1.31864e+01
       H  3.28739e+00  1.12082e+01 -1.33744e+01
       H  6.21108e+00  1.12924e+01 -1.34751e+01
       O  4.50736e+00  2.20305e+00 -7.56194e-01
       H  4.58372e+00  4.81753e-01  8.97187e-02
       H  4.35627e+00  2.20919e+00 -2.48966e+00
       O  2.53840e-01  9.52974e+00 -8.01727e-01
       H  1.70167e-01  7.76394e+00 -2.22974e-01
       H  2.33671e-02  9.50896e+00 -2.51861e+00
       O  3.96797e+00  2.58322e+00 -6.25311e+00
       H  2.54028e+00  3.52166e+00 -6.49928e+00
       H  5.51804e+00  3.64850e+00 -6.68926e+00
       O -2.53610e-01  9.95496e+00 -6.28961e+00
       H -1.73091e+00  1.09581e+01 -6.69444e+00
       H  1.40938e+00  1.08435e+01 -6.97111e+00
       O -3.22932e-01  5.20859e+00 -7.67568e+00
       H -4.67819e-02  5.35253e+00 -9.31339e+00
       H -1.26030e-01  7.01812e+00 -7.19747e+00
       O  3.91743e+00  1.25265e+01 -7.66422e+00
       H  4.07323e+00  1.24652e+01 -9.46325e+00
       H  4.29382e+00  1.41939e+01 -7.41747e+00
       O  2.66986e-01  4.75949e+00  7.45162e-01
       H -1.26261e+00  3.54107e+00  8.29075e-02
       H  1.66775e+00  3.52913e+00  4.23723e-01
       O  4.53833e+00  1.21554e+01  6.60864e-01
       H  3.18829e+00  1.11298e+01 -6.17777e-03
       H  6.15775e+00  1.09880e+01  5.25874e-01
       O  4.53785e+00  2.17945e+00  1.30198e+01
       H  4.47741e+00  1.34883e-01  1.37418e+01
       H  4.13828e+00  2.03906e+00  1.11726e+01
       O  2.86006e-01  9.54890e+00  1.30556e+01
       H  2.65090e-01  7.82880e+00  1.39644e+01
       H  2.92525e-01  9.42629e+00  1.12972e+01
       O  3.99790e+00  2.51227e+00  7.59625e+00
       H  2.55697e+00  3.38817e+00  7.18175e+00
       H  5.51850e+00  3.67183e+00  7.10172e+00
       O -3.29279e-01  9.91235e+00  7.57942e+00
       H -1.81842e+00  1.08027e+01  7.44632e+00
       H  1.23345e+00  1.08921e+01  7.09376e+00
       O -3.39179e-01  5.20260e+00  6.14264e+00
       H -5.46080e-01  5.22352e+00  4.51509e+00
       H -3.64657e-01  7.00810e+00  6.54962e+00
       O  4.00376e+00  1.24948e+01  6.15695e+00
       H  4.10149e+00  1.27485e+01  4.44424e+00
       H  3.96330e+00  1.44538e+01  6.81064e+00
192
# CELL(abcABC):   16.99620    29.43815    27.67315    90.00000    90.00000    90.00000  Step:          30  Bead:      13 positions{atomic_unit}  cell{atomic_unit}
       O -8.20927e+00 -9.97662e+00 -1.31212e+01
       H  6.97130e+00 -1.08189e+01 -1.37645e+01
       H -6.94285e+00 -1.12249e+01 -1.36791e+01
       O -4.00688e+00 -2.55058e+00 -1.31640e+01
       H -5.24778e+00 -3.75560e+00 -1.35134e+01
       H -2.46567e+00 -3.48791e+00 -1.37428e+01
       O -3.91905e+00 -1.25144e+01 -7.54141e-01
       H -3.95946e+00 -1.43836e+01 -1.82739e-01
       H -4.15781e+00 -1.25384e+01 -2.60611e+00
       O -8.16890e+00 -5.19115e+00 -7.83287e-01
       H -8.25660e+00 -6.96764e+00 -3.04778e-01
       H -8.31768e+00 -4.88605e+00 -2.70783e+00
       O -4.47905e+00 -1.21908e+01 -6.21881e+00
       H -6.02877e+00 -1.10067e+01 -6.54135e+00
       H -2.90778e+00 -1.14214e+01 -6.85923e+00
       O  8.26407e+00 -4.79192e+00 -6.27120e+00
       H  6.80448e+00 -3.68481e+00 -6.63118e+00
       H -7.10116e+00 -3.75984e+00 -7.10035e+00
       O  8.14834e+00 -9.50025e+00 -7.60555e+00
       H  8.29823e+00 -9.67858e+00 -9.42411e+00
       H  8.30779e+00 -7.42949e+00 -7.06278e+00
       O -4.50843e+00 -2.08668e+00 -7.71249e+00
       H -4.17010e+00 -2.04077e+00 -9.50528e+00
       H -4.69689e+00 -1.98376e-01 -7.12948e+00
       O -8.22411e+00 -9.93475e+00  6.56995e-01
       H  7.39017e+00 -1.08923e+01  1.78069e-01
       H -6.69542e+00 -1.07400e+01  1.22721e-01
       O -3.90650e+00 -2.64039e+00  6.93448e-01
       H -5.63228e+00 -3.53776e+00  2.01289e-01
       H -2.67714e+00 -3.68711e+00  5.06450e-01
       O -4.02173e+00 -1.25024e+01  1.30803e+01
       H -3.89841e+00 -1.46059e+01  1.34764e+01
       H -4.00261e+00 -1.26871e+01  1.12091e+01
       O -8.17491e+00 -5.10880e+00  1.30256e+01
       H -8.01866e+00 -7.02977e+00  1.37209e+01