192
# CELL(abcABC):   16.99620    29.43815    27.67315    90.00000    90.00000    90.00000  Step:           0  Bead:      16 positions{atomic_unit}  cell{atomic_unit}
       O -8.21943e+00 -9.93714e+00 -1.31733e+01
       H  7.30975e+00 -1.09659e+01 -1.36333e+01
       H -6.70309e+00 -1.09427e+01 -1.35003e+01
       O -3.97045e+00 -2.57760e+00 -1.31733e+01
       H -5.43740e+00 -3.60640e+00 -1.36335e+01
       H -2.45410e+00 -3.58307e+00 -1.35002e+01
       O -3.95479e+00 -1.25494e+01 -7.82537e-01
       H -3.95303e+00 -1.43463e+01 -2.27998e-01
       H -4.14654e+00 -1.25640e+01 -2.59980e+00
       O -8.20381e+00 -5.18980e+00 -7.82573e-01
       H -8.20206e+00 -6.98662e+00 -2.28079e-01
       H -8.39554e+00 -5.20430e+00 -2.59985e+00
       O -4.52774e+00 -1.21415e+01 -6.25501e+00
       H -6.04401e+00 -1.11359e+01 -6.58198e+00
       H -3.06070e+00 -1.11128e+01 -6.71509e+00
       O  8.21948e+00 -4.78197e+00 -6.25503e+00
       H  6.70316e+00 -3.77646e+00 -6.58191e+00
       H -7.30970e+00 -3.75321e+00 -6.71514e+00
       O  8.20373e+00 -9.52922e+00 -7.70081e+00
       H  8.39566e+00 -9.51468e+00 -9.51806e+00
       H  8.20220e+00 -7.73240e+00 -7.14624e+00
       O -4.54345e+00 -2.16975e+00 -7.70084e+00
       H -4.35162e+00 -2.15526e+00 -9.51812e+00
       H -4.54503e+00 -3.72917e-01 -7.14634e+00
       O -8.21943e+00 -9.93697e+00  6.63195e-01
       H  7.30977e+00 -1.09657e+01  2.03202e-01
       H -6.70308e+00 -1.09425e+01  3.36227e-01
       O -3.97044e+00 -2.57760e+00  6.63173e-01
       H -5.43747e+00 -3.60635e+00  2.03069e-01
       H -2.45410e+00 -3.58312e+00  3.36346e-01
       O -3.95472e+00 -1.25494e+01  1.30540e+01
       H -3.95309e+00 -1.43462e+01  1.36086e+01
       H -4.14653e+00 -1.25640e+01  1.12368e+01
       O -8.20380e+00 -5.18990e+00  1.30541e+01
       H -8.20202e+00 -6.98672e+00  1.36085e+01
       H -8.39553e+00 -5.20434e+00  1.12368e+01
       O -4.52771e+00 -1.21415e+01  7.58159e+00
       H -6.04402e+00 -1.11360e+01  7.25460e+00
       H -3.06070e+00 -1.11128e+01  7.12152e+00
       O  8.21944e+00 -4.78191e+00  7.58149e+00
       H  6.70312e+00 -3.77633e+00  7.25453e+00
       H -7.30974e+00 -3.75322e+00  7.12139e+00
       O  8.20378e+00 -9.52926e+00  6.13582e+00
       H  8.39564e+00 -9.51474e+00  4.31856e+00
       H  8.20221e+00 -7.73246e+00  6.69037e+00
       O -4.54344e+00 -2.16971e+00  6.13568e+00
       H -4.35161e+00 -2.15522e+00  4.31840e+00
       H -4.54506e+00 -3.72896e-01  6.69017e+00
       O -8.21947e+00  4.78210e+00 -1.31734e+01
       H  7.30974e+00  3.75335e+00 -1.36334e+01
       H -6.70314e+00  3.77651e+00 -1.35002e+01
       O -3.97046e+00  1.21415e+01 -1.31733e+01
       H -5.43745e+00  1.11127e+01 -1.36334e+01
       H -2.45410e+00  1.11360e+01 -1.35002e+01
       O -3.95479e+00  2.16971e+00 -7.82462e-01
       H -3.95303e+00  3.72884e-01 -2.27933e-01
       H -4.14646e+00  2.15509e+00 -2.59975e+00
       O -8.20376e+00  9.52923e+00 -7.82499e-01
       H -8.20200e+00  7.73238e+00 -2.27998e-01
       H -8.39546e+00  9.51472e+00 -2.59977e+00
       O -4.52774e+00  2.57749e+00 -6.25512e+00
       H -6.04400e+00  3.58312e+00 -6.58197e+00
       H -3.06066e+00  3.60618e+00 -6.71512e+00
       O  8.21949e+00  9.93715e+00 -6.25509e+00
       H  6.70318e+00  1.09426e+01 -6.58202e+00
       H -7.30970e+00  1.09659e+01 -6.71526e+00
       O  8.20366e+00  5.18988e+00 -7.70077e+00
       H  8.39552e+00  5.20437e+00 -9.51803e+00
       H  8.20217e+00  6.98669e+00 -7.14625e+00
       O -4.54337e+00  1.25494e+01 -7.70088e+00
       H -4.35159e+00  1.25639e+01 -9.51817e+00
       H -4.54500e+00  1.43462e+01 -7.14634e+00
       O -8.21952e+00  4.78190e+00  6.63226e-01
       H  7.30971e+00  3.75313e+00  2.03107e-01
       H -6.70317e+00  3.77635e+00  3.36440e-01
       O -3.97040e+00  1.21415e+01  6.63326e-01
       H -5.43738e+00  1.11127e+01  2.03185e-01
       H -2.45407e+00  1.11360e+01  3.36426e-01
       O -3.95476e+00  2.16964e+00  1.30541e+01
       H -3.95303e+00  3.72832e-01  1.36087e+01
       H -4.14651e+00  2.15510e+00  1.12369e+01
       O -8.20373e+00  9.52937e+00  1.30540e+01
       H -8.20206e+00  7.73252e+00  1.36085e+01
       H -8.39548e+00  9.51483e+00  1.12368e+01
       O -4.52770e+00  2.57756e+00  7.58140e+00
       H -6.04399e+00  3.58315e+00  7.25450e+00
       H -3.06066e+00  3.60630e+00  7.12138e+00
       O  8.21951e+00  9.93714e+00  7.58157e+00
       H  6.70319e+00  1.09427e+01  7.25463e+00
       H -7.30968e+00  1.09658e+01  7.12140e+00
       O  8.20369e+00  5.18993e+00  6.13578e+00
       H  8.39547e+00  5.20441e+00  4.31850e+00
       H  8.20212e+00  6.98674e+00  6.69030e+00
       O -4.54348e+00  1.25494e+01  6.13570e+00
       H -4.35158e+00  1.25639e+01  4.31845e+00
       H -4.54503e+00  1.43462e+01  6.69025e+00
       O  2.78573e-01 -9.93717e+00 -1.31734e+01
       H -1.18842e+00 -1.09659e+01 -1.36336e+01
       H  1.79493e+00 -1.09427e+01 -1.35002e+01
       O  4.52772e+00 -2.57751e+00 -1.31733e+01
       H  3.06068e+00 -3.60627e+00 -1.36334e+01
       H  6.04403e+00 -3.58305e+00 -1.35003e+01
       O  4.54334e+00 -1.25494e+01 -7.82465e-01
       H  4.54513e+00 -1.43463e+01 -2.27989e-01
       H  4.35168e+00 -1.25640e+01 -2.59974e+00
       O  2.94294e-01 -5.18980e+00 -7.82487e-01
       H  2.96032e-01 -6.98663e+00 -2.28053e-01
       H  1.02602e-01 -5.20427e+00 -2.59977e+00
       O  3.97042e+00 -1.21415e+01 -6.25517e+00
       H  2.45414e+00 -1.11359e+01 -6.58198e+00
       H  5.43747e+00 -1.11128e+01 -6.71526e+00
       O -2.78672e-01 -4.78194e+00 -6.25508e+00
       H -1.79498e+00 -3.77636e+00 -6.58199e+00
       H  1.18837e+00 -3.75320e+00 -6.71514e+00
       O -2.94511e-01 -9.52920e+00 -7.70081e+00
       H -1.02600e-01 -9.51466e+00 -9.51806e+00
       H -2.96005e-01 -7.73240e+00 -7.14625e+00
       O  3.95462e+00 -2.16972e+00 -7.70080e+00
       H  4.14654e+00 -2.15521e+00 -9.51804e+00
       H  3.95318e+00 -3.72879e-01 -7.14628e+00
       O  2.78541e-01 -9.93701e+00  6.63104e-01
       H -1.18842e+00 -1.09658e+01  2.03011e-01
       H  1.79493e+00 -1.09425e+01  3.36333e-01
       O  4.52773e+00 -2.57757e+00  6.63187e-01
       H  3.06068e+00 -3.60633e+00  2.03125e-01
       H  6.04402e+00 -3.58308e+00  3.36357e-01
       O  4.54332e+00 -1.25494e+01  1.30541e+01
       H  4.54518e+00 -1.43462e+01  1.36086e+01
       H  4.35169e+00 -1.25640e+01  1.12368e+01
       O  2.94281e-01 -5.18991e+00  1.30541e+01
       H  2.95995e-01 -6.98675e+00  1.36085e+01
       H  1.02570e-01 -5.20435e+00  1.12368e+01
       O  3.97044e+00 -1.21415e+01  7.58145e+00
       H  2.45413e+00 -1.11360e+01  7.25466e+00
       H  5.43745e+00 -1.11128e+01  7.12135e+00
       O -2.78601e-01 -4.78191e+00  7.58148e+00
       H -1.79495e+00 -3.77634e+00  7.25458e+00
       H  1.18839e+00 -3.75323e+00  7.12138e+00
       O -2.94501e-01 -9.52922e+00  6.13582e+00
       H -1.02637e-01 -9.51466e+00  4.31854e+00
       H -2.96013e-01 -7.73241e+00  6.69035e+00
       O  3.95462e+00 -2.16967e+00  6.13570e+00
       H  4.14656e+00 -2.15516e+00  4.31844e+00
       H  3.95315e+00 -3.72836e-01  6.69024e+00
       O  2.78636e-01  4.78206e+00 -1.31735e+01
       H -1.18832e+00  3.75329e+00 -1.36335e+01
       H  1.79499e+00  3.77651e+00 -1.35003e+01
       O  4.52773e+00  1.21415e+01 -1.31733e+01
       H  3.06066e+00  1.11127e+01 -1.36334e+01
       H  6.04403e+00  1.11360e+01 -1.35003e+01
       O  4.54332e+00  2.16970e+00 -7.82499e-01
       H  4.54510e+00  3.72872e-01 -2.27973e-01
       H  4.35161e+00  2.15513e+00 -2.59979e+00
       O  2.94188e-01  9.52923e+00 -7.82517e-01
       H  2.95976e-01  7.73239e+00 -2.28033e-01
       H  1.02486e-01  9.51470e+00 -2.59980e+00
       O  3.97041e+00  2.57752e+00 -6.25508e+00
       H  2.45414e+00  3.58307e+00 -6.58188e+00
       H  5.43747e+00  3.60626e+00 -6.71516e+00
       O -2.78677e-01  9.93714e+00 -6.25506e+00
       H -1.79497e+00  1.09427e+01 -6.58203e+00
       H  1.18838e+00  1.09659e+01 -6.71517e+00
       O -2.94451e-01  5.18990e+00 -7.70074e+00
       H -1.02475e-01  5.20442e+00 -9.51799e+00
       H -2.95971e-01  6.98671e+00 -7.14623e+00
       O  3.95453e+00  1.25494e+01 -7.70088e+00
       H  4.14650e+00  1.25638e+01 -9.51813e+00
       H  3.95314e+00  1.43462e+01 -7.14638e+00
       O  2.78666e-01  4.78190e+00  6.63181e-01
       H -1.18838e+00  3.75314e+00  2.03219e-01
       H  1.79499e+00  3.77637e+00  3.36305e-01
       O  4.52768e+00  1.21415e+01  6.63233e-01
       H  3.06065e+00  1.11127e+01  2.03130e-01
       H  6.04402e+00  1.11359e+01  3.36318e-01
       O  4.54337e+00  2.16963e+00  1.30541e+01
       H  4.54515e+00  3.72778e-01  1.36085e+01
       H  4.35165e+00  2.15511e+00  1.12368e+01
       O  2.94139e-01  9.52935e+00  1.30540e+01
       H  2.96028e-01  7.73252e+00  1.36085e+01
       H  1.02508e-01  9.51480e+00  1.12368e+01
       O  3.97044e+00  2.57752e+00  7.58146e+00
       H  2.45409e+00  3.58312e+00  7.25468e+00
       H  5.43745e+00  3.60627e+00  7.12136e+00
       O -2.78642e-01  9.93713e+00  7.58156e+00
       H -1.79498e+00  1.09426e+01  7.25459e+00
       H  1.18834e+00  1.09658e+01  7.12145e+00
       O -2.94462e-01  5.18993e+00  6.13575e+00
       H -1.02485e-01  5.20444e+00  4.31854e+00
       H -2.95928e-01  6.98677e+00  6.69031e+00
       O  3.95461e+00  1.25493e+01  6.13580e+00
       H  4.14651e+00  1.25638e+01  4.31854e+00
       H  3.95313e+00  1.43462e+01  6.69028e+00
192
# CELL(abcABC):   16.99620    29.43815    27.67315    90.00000    90.00000    90.00000  Step:          10  Bead:      16 positions{atomic_unit}  cell{atomic_unit}
       O -8.23396e+00 -9.90773e+00 -1.31524e+01
       H  7.29840e+00 -1.10935e+01 -1.36611e+01
       H -6.73406e+00 -1.10702e+01 -1.35655e+01
       O -4.00059e+00 -2.57149e+00 -1.31511e+01
       H -5.40735e+00 -3.73974e+00 -1.35871e+01
       H -2.43708e+00 -3.64339e+00 -1.33669e+01
       O -3.91220e+00 -1.25401e+01 -7.92167e-01
       H -3.98180e+00 -1.43849e+01 -1.91786e-01
       H -4.28459e+00 -1.26376e+01 -2.62140e+00
       O -8.21246e+00 -5.14958e+00 -7.56288e-01
       H -8.13194e+00 -6.99348e+00 -2.26269e-01
       H -8.39866e+00 -5.16763e+00 -2.55633e+00
       O -4.48493e+00 -1.21502e+01 -6.26819e+00
       H -6.03009e+00 -1.10065e+01 -6.58029e+00
       H -2.96473e+00 -1.12310e+01 -6.65866e+00
       O  8.20190e+00 -4.74252e+00 -6.30422e+00
       H  6.80795e+00 -3.80114e+00 -6.43352e+00
       H -7.25576e+00 -3.65133e+00 -6.88431e+00
       O  8.27810e+00 -9.52847e+00 -7.69418e+00
       H  8.20612e+00 -9.51307e+00 -9.52470e+00
       H  8.16427e+00 -7.91127e+00 -7.26442e+00
       O -4.53416e+00 -2.18118e+00 -7.74812e+00
       H -4.29477e+00 -2.26672e+00 -9.56568e+00
       H -4.61063e+00 -3.61738e-01 -7.27165e+00
       O -8.22129e+00 -9.91906e+00  6.80159e-01
       H  7.50619e+00 -1.09846e+01  1.85962e-01
       H -6.85251e+00 -1.10180e+01  3.59826e-01
       O -3.96043e+00 -2.63102e+00  6.36720e-01
       H -5.38531e+00 -3.71292e+00  2.85777e-01
       H -2.53171e+00 -3.73947e+00  3.33689e-01
       O -3.94903e+00 -1.25331e+01  1.31031e+01
       H -4.05048e+00 -1.45614e+01  1.37056e+01
       H -4.24020e+00 -1.24985e+01  1.12442e+01
       O -8.22282e+00 -5.14304e+00  1.30459e+01
       H -8.08068e+00 -7.11500e+00  1.36285e+01
       H -8.27188e+00 -5.16725e+00  1.11880e+01
       O -4.54325e+00 -1.21062e+01  7.58974e+00
       H -5.90549e+00 -1.10515e+01  7.30119e+00
       H -3.08760e+00 -1.10748e+01  7.02107e+00
       O  8.24053e+00 -4.78114e+00  7.53122e+00
       H  6.76641e+00 -3.90752e+00  7.19342e+00
       H -7.47138e+00 -3.55449e+00  7.12734e+00
       O  8.20913e+00 -9.52273e+00  6.13786e+00
       H  8.40249e+00 -9.37518e+00  4.26615e+00
       H  8.26430e+00 -7.82620e+00  6.73528e+00
       O -4.60323e+00 -2.12215e+00  6.13567e+00
       H -4.41751e+00 -2.12810e+00  4.44024e+00
       H -4.52759e+00 -3.46414e-01  6.81396e+00
       O -8.18425e+00  4.74318e+00 -1.31907e+01
       H  7.09960e+00  3.75332e+00 -1.35502e+01
       H -6.69630e+00  3.65670e+00 -1.36264e+01
       O -3.97593e+00  1.21401e+01 -1.31875e+01
       H -5.71237e+00  1.12081e+01 -1.38590e+01
       H -2.32464e+00  1.12721e+01 -1.34888e+01
       O -3.97381e+00  2.11670e+00 -8.06219e-01
       H -3.96298e+00  4.27780e-01 -1.26021e-01
       H -4.13930e+00  2.09040e+00 -2.58539e+00
       O -8.19393e+00  9.51496e+00 -7.68229e-01
       H -8.08651e+00  7.62063e+00 -3.50640e-01
       H -8.25981e+00  9.38703e+00 -2.74033e+00
       O -4.51380e+00  2.56793e+00 -6.26818e+00
       H -6.22457e+00  3.64692e+00 -6.32941e+00
       H -3.05820e+00  3.68559e+00 -6.60610e+00
       O  8.18049e+00  9.95593e+00 -6.22447e+00
       H  6.67109e+00  1.10174e+01 -6.69241e+00
       H -7.39496e+00  1.09877e+01 -6.61312e+00
       O  8.17038e+00  5.21762e+00 -7.71133e+00
       H  8.60560e+00  5.30463e+00 -9.53619e+00
       H  8.17466e+00  6.99929e+00 -7.09830e+00
       O -4.53233e+00  1.25445e+01 -7.71132e+00
       H -4.38175e+00  1.24299e+01 -9.58110e+00
       H -4.57085e+00  1.44612e+01 -6.97268e+00
       O -8.19152e+00  4.83850e+00  6.26732e-01
       H  7.39922e+00  3.75134e+00  1.46373e-01
       H -6.46630e+00  3.85696e+00  4.93450e-01
       O -3.98246e+00  1.21004e+01  6.26860e-01
       H -5.32968e+00  1.13510e+01  3.34235e-01
       H -2.47862e+00  1.11478e+01  3.73003e-01
       O -3.94518e+00  2.21175e+00  1.30758e+01
       H -3.92225e+00  4.54078e-01  1.35246e+01
       H -4.19267e+00  2.09933e+00  1.12992e+01
       O -8.23012e+00  9.51275e+00  1.30463e+01
       H -8.18750e+00  7.59934e+00  1.34556e+01
       H -8.35781e+00  9.51632e+00  1.11624e+01
       O -4.53496e+00  2.59989e+00  7.57576e+00
       H -6.15922e+00  3.72281e+00  7.14758e+00
       H -3.16312e+00  3.56180e+00  7.04780e+00
       O  8.22309e+00  9.93900e+00  7.57652e+00
       H  6.70838e+00  1.09286e+01  7.17533e+00
       H -7.22279e+00  1.09821e+01  7.24215e+00
       O  8.20504e+00  5.19148e+00  6.15610e+00
       H  8.46662e+00  5.17798e+00  4.43065e+00
       H  8.04767e+00  7.20649e+00  6.62694e+00
       O -4.56020e+00  1.25419e+01  6.12159e+00
       H -4.15178e+00  1.25504e+01  4.43413e+00
       H -4.74994e+00  1.44306e+01  6.92340e+00
       O  3.03350e-01 -9.94622e+00 -1.31865e+01
       H -1.26343e+00 -1.09218e+01 -1.36316e+01
       H  1.91832e+00 -1.09202e+01 -1.35086e+01
       O  4.59378e+00 -2.60565e+00 -1.31466e+01
       H  3.15856e+00 -3.53853e+00 -1.37094e+01
       H  5.93394e+00 -3.62452e+00 -1.34884e+01
       O  4.57372e+00 -1.26004e+01 -7.73331e-01
       H  4.50977e+00 -1.42719e+01 -3.49677e-01
       H  4.34361e+00 -1.24819e+01 -2.57497e+00
       O  3.02963e-01 -5.15081e+00 -7.66783e-01
       H  2.32552e-01 -6.97872e+00 -2.05699e-01
       H  1.29929e-01 -5.28674e+00 -2.49983e+00
       O  3.99403e+00 -1.21548e+01 -6.21338e+00
       H  2.43320e+00 -1.11613e+01 -6.58120e+00
       H  5.49827e+00 -1.11545e+01 -6.88523e+00
       O -2.75519e-01 -4.77107e+00 -6.24507e+00
       H -1.80031e+00 -3.85427e+00 -6.61506e+00
       H  1.25623e+00 -3.68261e+00 -6.87882e+00
       O -3.27287e-01 -9.53673e+00 -7.67242e+00
       H  1.05721e-02 -9.53221e+00 -9.55666e+00
       H -4.38576e-01 -7.86550e+00 -6.98128e+00
       O  3.94767e+00 -2.20019e+00 -7.69151e+00
       H  4.14557e+00 -2.17900e+00 -9.45414e+00
       H  3.95857e+00 -2.46569e-01 -7.12307e+00
       O  2.60570e-01 -9.95061e+00  6.61818e-01
       H -8.77743e-01 -1.08000e+01  2.55491e-01
       H  1.63851e+00 -1.09078e+01  4.09188e-01
       O  4.50101e+00 -2.56412e+00  6.44182e-01
       H  3.05798e+00 -3.74263e+00  3.28386e-01
       H  6.09825e+00 -3.63611e+00  2.08941e-01
       O  4.52527e+00 -1.25366e+01  1.30886e+01
       H  4.60450e+00 -1.43603e+01  1.35393e+01
       H  4.36546e+00 -1.27060e+01  1.13188e+01
       O  2.50776e-01 -5.19757e+00  1.30742e+01
       H  2.94242e-01 -6.95470e+00  1.36247e+01
       H  7.44028e-02 -5.20675e+00  1.11248e+01
       O  4.00471e+00 -1.21259e+01  7.60116e+00
       H  2.35915e+00 -1.11653e+01  7.36271e+00
       H  5.46493e+00 -1.12205e+01  6.97459e+00
       O -2.71048e-01 -4.76683e+00  7.59111e+00
       H -1.80088e+00 -3.64361e+00  7.15851e+00
       H  1.18666e+00 -3.81817e+00  7.30940e+00
       O -2.67277e-01 -9.58755e+00  6.15160e+00
       H -1.53746e-01 -9.46726e+00  4.35565e+00
       H -3.38446e-01 -7.82715e+00  6.61246e+00
       O  3.97359e+00 -2.17471e+00  6.13474e+00
       H  4.13745e+00 -2.30069e+00  4.22288e+00
       H  4.00103e+00 -3.04609e-01  6.54884e+00
       O  2.83719e-01  4.74953e+00 -1.31898e+01
       H -1.21472e+00  3.89191e+00 -1.36924e+01
       H  1.81986e+00  3.73929e+00 -1.35186e+01
       O  4.52862e+00  1.21449e+01 -1.31459e+01
       H  3.24822e+00  1.09801e+01 -1.37970e+01
       H  6.16907e+00  1.10021e+01 -1.35200e+01
       O  4.55894e+00  2.19292e+00 -7.75222e-01
       H  4.74425e+00  3.46584e-01 -1.40539e-01
       H  4.21474e+00  2.24208e+00 -2.62387e+00
       O  2.57451e-01  9.53631e+00 -7.69615e-01
       H  3.06483e-01  7.74079e+00 -2.59183e-01
       H  2.16423e-01  9.43208e+00 -2.43917e+00
       O  3.98545e+00  2.60229e+00 -6.24552e+00
       H  2.55908e+00  3.57863e+00 -6.47121e+00
       H  5.52854e+00  3.57873e+00 -6.86695e+00
       O -2.75635e-01  9.93719e+00 -6.27055e+00
       H -1.62025e+00  1.10101e+01 -6.49418e+00
       H  1.31211e+00  1.09303e+01 -6.66044e+00
       O -2.76589e-01  5.18371e+00 -7.69897e+00
       H -6.28415e-02  5.14000e+00 -9.51729e+00
       H -3.04894e-01  6.98304e+00 -6.96046e+00
       O  3.98837e+00  1.25365e+01 -7.69639e+00
       H  4.20606e+00  1.24837e+01 -9.65799e+00
       H  3.94459e+00  1.43167e+01 -7.15891e+00
       O  2.58332e-01  4.77363e+00  6.85800e-01
       H -1.25716e+00  3.69170e+00  5.18125e-02
       H  1.74231e+00  3.87526e+00  3.20829e-01
       O  4.53980e+00  1.21281e+01  6.38061e-01
       H  3.21054e+00  1.11861e+01  2.29512e-01
       H  6.05920e+00  1.10826e+01  2.09335e-01
       O  4.52781e+00  2.15932e+00  1.30910e+01
       H  4.45493e+00  3.82617e-01  1.37763e+01
       H  4.22943e+00  2.05046e+00  1.11046e+01
       O  3.15580e-01  9.50109e+00  1.30426e+01
       H  3.18988e-01  7.84483e+00  1.36991e+01
       H  1.16983e-01  9.42184e+00  1.12010e+01
       O  3.96919e+00  2.57548e+00  7.57845e+00
       H  2.59868e+00  3.40731e+00  7.11115e+00
       H  5.42435e+00  3.58997e+00  7.18268e+00
       O -3.18823e-01  9.91555e+00  7.58911e+00
       H -1.85780e+00  1.09298e+01  7.30486e+00
       H  1.23193e+00  1.08734e+01  7.06612e+00
       O -3.05906e-01  5.19296e+00  6.11387e+00
       H -1.85374e-01  5.24427e+00  4.52851e+00
       H -2.96526e-01  6.84938e+00  6.56541e+00
       O  3.98470e+00  1.25102e+01  6.10579e+00
       H  4.10382e+00  1.27500e+01  4.33751e+00
       H  3.97439e+00  1.44041e+01  6.76554e+00
192
# CELL(abcABC):   16.99620    29.43815    27.67315    90.00000    90.00000    90.00000  Step:          20  Bead:      16 positions{atomic_unit}  cell{atomic_unit}
       O -8.22422e+00 -9.96035e+00 -1.31163e+01
       H  7.22911e+00 -1.10175e+01 -1.37896e+01
       H -6.74496e+00 -1.09174e+01 -1.36445e+01
       O -4.02592e+00 -2.57157e+00 -1.31578e+01
       H -5.42176e+00 -3.76071e+00 -1.37758e+01
       H -2.64489e+00 -3.54245e+00 -1.34435e+01
       O -3.95971e+00 -1.24995e+01 -8.06554e-01
       H -4.00486e+00 -1.43028e+01 -2.05739e-01
       H -4.21237e+00 -1.26339e+01 -2.63349e+00
       O -8.23536e+00 -5.16467e+00 -7.62744e-01
       H -8.18472e+00 -6.90346e+00 -3.25847e-01
       H -8.30376e+00 -5.05994e+00 -2.49185e+00
       O -4.48982e+00 -1.21058e+01 -6.23882e+00
       H -5.94232e+00 -1.09782e+01 -6.66941e+00
       H -2.91721e+00 -1.13385e+01 -6.72597e+00
       O  8.21384e+00 -4.76552e+00 -6.30403e+00
       H  6.85570e+00 -3.76604e+00 -6.60727e+00
       H -7.10589e+00 -3.56029e+00 -6.97152e+00
       O  8.27199e+00 -9.50372e+00 -7.65752e+00
       H  8.34055e+00 -9.53070e+00 -9.36253e+00
       H  8.17451e+00 -7.92889e+00 -7.04697e+00
       O -4.57450e+00 -2.14646e+00 -7.77178e+00
       H -4.27797e+00 -2.13490e+00 -9.58669e+00
       H -4.82482e+00 -4.83187e-01 -7.22259e+00
       O -8.20644e+00 -9.89539e+00  6.64834e-01
       H  7.39980e+00 -1.09815e+01  1.98680e-01
       H -6.88569e+00 -1.10076e+01  4.21639e-01
       O -3.95096e+00 -2.62243e+00  6.47840e-01
       H -5.48965e+00 -3.67666e+00  2.65936e-01
       H -2.59597e+00 -3.83488e+00  2.82727e-01
       O -3.92210e+00 -1.25007e+01  1.31348e+01
       H -3.96182e+00 -1.45868e+01  1.37048e+01
       H -4.14732e+00 -1.25301e+01  1.12750e+01
       O -8.22203e+00 -5.14447e+00  1.30428e+01
       H -8.01147e+00 -7.27296e+00  1.34797e+01
       H -8.15630e+00 -5.20610e+00  1.11352e+01
       O -4.52429e+00 -1.20908e+01  7.57320e+00
       H -6.06646e+00 -1.09631e+01  7.27463e+00
       H -3.07695e+00 -1.09627e+01  6.97716e+00
       O  8.29238e+00 -4.77948e+00  7.52966e+00
       H  6.71786e+00 -3.89012e+00  7.03749e+00
       H -7.66190e+00 -3.68815e+00  7.17446e+00
       O  8.20881e+00 -9.50479e+00  6.14799e+00
       H  8.35057e+00 -9.22533e+00  4.19608e+00
       H  8.37686e+00 -7.98198e+00  6.58657e+00
       O -4.59764e+00 -2.11665e+00  6.13728e+00
       H -4.47567e+00 -2.06780e+00  4.45758e+00
       H -4.53010e+00 -4.91354e-01  6.84007e+00
       O -8.14256e+00  4.69603e+00 -1.32261e+01
       H  7.11026e+00  3.69779e+00 -1.35124e+01
       H -6.71848e+00  3.56462e+00 -1.36095e+01
       O -3.95622e+00  1.21189e+01 -1.31994e+01
       H -5.69339e+00  1.12870e+01 -1.39151e+01
       H -2.41107e+00  1.12139e+01 -1.33095e+01
       O -3.98825e+00  2.11224e+00 -8.31075e-01
       H -3.94716e+00  5.07941e-01 -4.31159e-02
       H -4.09497e+00  2.19584e+00 -2.71520e+00
       O -8.16212e+00  9.51912e+00 -8.40943e-01
       H -8.04291e+00  7.54950e+00 -3.87576e-01
       H -8.13219e+00  9.46045e+00 -2.80846e+00
       O -4.52880e+00  2.56545e+00 -6.25124e+00
       H -6.13711e+00  3.58602e+00 -6.33063e+00
       H -3.13360e+00  3.72194e+00 -6.61078e+00
       O  8.15515e+00  9.93138e+00 -6.25055e+00
       H  6.54258e+00  1.09444e+01 -6.60987e+00
       H -7.24404e+00  1.10534e+01 -6.45761e+00
       O  8.16135e+00  5.20386e+00 -7.71912e+00
       H  8.55232e+00  5.14064e+00 -9.62895e+00
       H  8.17317e+00  7.09404e+00 -7.20252e+00
       O -4.51360e+00  1.25168e+01 -7.71266e+00
       H -4.48549e+00  1.23779e+01 -9.49415e+00
       H -4.48359e+00  1.46071e+01 -6.88185e+00
       O -8.19526e+00  4.80902e+00  6.06836e-01
       H  7.48891e+00  3.70216e+00  2.11980e-01
       H -6.30339e+00  3.76159e+00  5.59545e-01
       O -3.97517e+00  1.21100e+01  5.82115e-01
       H -5.42022e+00  1.13287e+01  3.78296e-01
       H -2.42950e+00  1.13273e+01  3.76302e-01
       O -3.93629e+00  2.22947e+00  1.30785e+01
       H -3.94219e+00  4.92268e-01  1.35536e+01
       H -4.15762e+00  2.11396e+00  1.12640e+01
       O -8.23070e+00  9.55674e+00  1.30557e+01
       H -8.20658e+00  7.52988e+00  1.35294e+01
       H -8.27737e+00  9.40670e+00  1.10842e+01
       O -4.53826e+00  2.64992e+00  7.55645e+00
       H -6.03786e+00  3.83549e+00  7.06715e+00
       H -3.37655e+00  3.57908e+00  7.02374e+00
       O  8.23213e+00  9.95426e+00  7.61577e+00
       H  6.84987e+00  1.10200e+01  7.01075e+00
       H -7.18945e+00  1.09290e+01  7.34310e+00
       O  8.19618e+00  5.17377e+00  6.20966e+00
       H  8.50662e+00  5.38763e+00  4.31855e+00
       H  8.03116e+00  7.24067e+00  6.88138e+00
       O -4.56984e+00  1.25335e+01  6.11639e+00
       H -4.26338e+00  1.25408e+01  4.44552e+00
       H -4.55631e+00  1.44024e+01  6.96462e+00
       O  3.11793e-01 -9.98115e+00 -1.31715e+01
       H -1.31598e+00 -1.08652e+01 -1.37443e+01
       H  1.76739e+00 -1.08549e+01 -1.34753e+01
       O  4.58714e+00 -2.59976e+00 -1.31461e+01
       H  3.18146e+00 -3.59977e+00 -1.35721e+01
       H  5.96432e+00 -3.46775e+00 -1.35267e+01
       O  4.61827e+00 -1.25652e+01 -7.97948e-01
       H  4.56905e+00 -1.43638e+01 -5.16113e-01
       H  4.46877e+00 -1.24010e+01 -2.43611e+00
       O  2.71645e-01 -5.09922e+00 -7.37263e-01
       H  1.44483e-01 -6.99837e+00 -2.17390e-01
       H  1.73297e-01 -5.15249e+00 -2.57577e+00
       O  3.98522e+00 -1.22052e+01 -6.21630e+00
       H  2.35226e+00 -1.12072e+01 -6.67063e+00
       H  5.54224e+00 -1.11039e+01 -6.76144e+00
       O -2.44249e-01 -4.76839e+00 -6.21958e+00
       H -1.83766e+00 -3.75432e+00 -6.63427e+00
       H  1.24406e+00 -3.75370e+00 -6.98686e+00
       O -3.48182e-01 -9.56723e+00 -7.65567e+00
       H -9.69135e-02 -9.53138e+00 -9.54028e+00
       H -5.75151e-01 -7.68487e+00 -7.10311e+00
       O  3.96694e+00 -2.20961e+00 -7.68148e+00
       H  4.11460e+00 -1.93037e+00 -9.46282e+00
       H  3.98145e+00 -2.89398e-01 -7.23936e+00
       O  2.62854e-01 -9.97184e+00  6.55187e-01
       H -8.85597e-01 -1.07902e+01  2.19283e-01
       H  1.72111e+00 -1.10067e+01  3.46344e-01
       O  4.49109e+00 -2.57727e+00  6.74503e-01
       H  3.00652e+00 -3.68791e+00  2.72301e-01
       H  6.14399e+00 -3.38146e+00  3.10274e-01
       O  4.55595e+00 -1.24933e+01  1.30870e+01
       H  4.58942e+00 -1.44667e+01  1.34150e+01
       H  4.21385e+00 -1.26155e+01  1.12408e+01
       O  2.40369e-01 -5.19239e+00  1.30235e+01
       H  4.17912e-01 -6.83071e+00  1.36935e+01
       H  1.25233e-01 -5.19660e+00  1.12603e+01
       O  3.97461e+00 -1.21213e+01  7.61311e+00
       H  2.43799e+00 -1.11451e+01  7.39909e+00
       H  5.38149e+00 -1.11816e+01  6.91791e+00
       O -2.50452e-01 -4.75566e+00  7.63154e+00
       H -1.89721e+00 -3.74458e+00  7.15267e+00
       H  1.09815e+00 -3.82902e+00  7.35873e+00
       O -2.50682e-01 -9.61302e+00  6.14456e+00
       H -2.42132e-01 -9.49749e+00  4.36015e+00
       H -2.70711e-01 -7.77380e+00  6.68922e+00
       O  3.98604e+00 -2.19956e+00  6.13851e+00
       H  4.10547e+00 -2.20801e+00  4.16473e+00
       H  4.05116e+00 -2.71432e-01  6.49437e+00
       O  2.92957e-01  4.74554e+00 -1.31861e+01
       H -9.46208e-01  3.90713e+00 -1.37765e+01
       H  1.74288e+00  3.96586e+00 -1.35399e+01
       O  4.56293e+00  1.21901e+01 -1.31448e+01
       H  3.24377e+00  1.10122e+01 -1.36065e+01
       H  6.22964e+00  1.10322e+01 -1.35292e+01
       O  4.53830e+00  2.20826e+00 -7.71306e-01
       H  4.79776e+00  2.89345e-01  2.33320e-02
       H  4.18663e+00  2.19256e+00 -2.58535e+00
       O  2.65859e-01  9.50400e+00 -7.72296e-01
       H  2.16798e-01  7.69970e+00 -3.60361e-01
       H  1.36046e-01  9.38456e+00 -2.46650e+00
       O  3.99933e+00  2.57627e+00 -6.23234e+00
       H  2.59546e+00  3.56323e+00 -6.44796e+00
       H  5.59836e+00  3.56524e+00 -6.82015e+00
       O -2.81327e-01  9.92312e+00 -6.32671e+00
       H -1.73388e+00  1.10018e+01 -6.52047e+00
       H  1.30782e+00  1.10920e+01 -6.61199e+00
       O -2.58092e-01  5.17332e+00 -7.69368e+00
       H  1.14031e-01  5.18862e+00 -9.47976e+00
       H -2.65972e-01  7.03995e+00 -7.05568e+00
       O  3.99711e+00  1.25270e+01 -7.72059e+00
       H  4.09791e+00  1.23791e+01 -9.66746e+00
       H  3.91518e+00  1.43376e+01 -7.14433e+00
       O  2.53842e-01  4.75536e+00  6.60280e-01
       H -1.21814e+00  3.60452e+00 -1.04904e-01
       H  1.71521e+00  3.84339e+00  3.45009e-01
       O  4.52813e+00  1.21194e+01  6.14256e-01
       H  3.24065e+00  1.11401e+01  2.72943e-01
       H  6.19944e+00  1.09405e+01  2.92071e-01
       O  4.50215e+00  2.18431e+00  1.30900e+01
       H  4.56325e+00  2.89296e-01  1.37378e+01
       H  4.29453e+00  2.03259e+00  1.12720e+01
       O  2.89028e-01  9.46410e+00  1.30637e+01
       H  3.01466e-01  7.96549e+00  1.38022e+01
       H  1.64064e-02  9.24494e+00  1.12471e+01
       O  3.95259e+00  2.59895e+00  7.62296e+00
       H  2.48822e+00  3.33840e+00  7.28664e+00
       H  5.42106e+00  3.70559e+00  7.25751e+00
       O -3.70821e-01  9.90991e+00  7.54765e+00
       H -1.90923e+00  1.08039e+01  7.25116e+00
       H  1.20557e+00  1.08095e+01  7.06997e+00
       O -3.30054e-01  5.18280e+00  6.16387e+00
       H -2.39618e-01  5.21218e+00  4.57200e+00
       H -2.24225e-01  6.91450e+00  6.68943e+00
       O  3.96892e+00  1.24911e+01  6.07948e+00
       H  4.11126e+00  1.27925e+01  4.37019e+00
       H  4.09122e+00  1.42987e+01  6.82741e+00
192
# CELL(abcABC):   16.99620    29.43815    27.67315    90.00000    90.00000    90.00000  Step:          30  Bead:      16 positions{atomic_unit}  cell{atomic_unit}
       O -8.19909e+00 -9.97364e+00 -1.30702e+01
       H  7.06757e+00 -1.08826e+01 -1.37447e+01
       H -6.96767e+00 -1.09466e+01 -1.36856e+01
       O -4.01687e+00 -2.53807e+00 -1.31951e+01
       H -5.31745e+00 -3.61759e+00 -1.38214e+01
       H -2.51216e+00 -3.58067e+00 -1.35943e+01
       O -3.98975e+00 -1.24916e+01 -8.27781e-01
       H -4.22245e+00 -1.42452e+01 -9.63678e-02
       H -4.24294e+00 -1.28350e+01 -2.67902e+00
       O -8.19952e+00 -5.16100e+00 -7.87193e-01
       H -8.29098e+00 -6.94625e+00 -2.97221e-01
       H -8.28849e+00 -5.19844e+00 -2.43355e+00
       O -4.49937e+00 -1.21454e+01 -6.22911e+00
       H -5.95970e+00 -1.09869e+01 -6.64015e+00
       H -2.76765e+00 -1.14110e+01 -6.82508e+00
       O  8.21687e+00 -4.80198e+00 -6.31485e+00
       H  6.88457e+00 -3.70131e+00 -6.81540e+00
       H -6.96751e+00 -3.71553e+00 -7.02719e+00
       O  8.24167e+00 -9.49616e+00 -7.63319e+00
       H  8.28862e+00 -9.60287e+00 -9.48147e+00
       H  8.08404e+00 -7.86696e+00 -6.99259e+00
       O -4.59217e+00 -2.14008e+00 -7.78277e+00
       H -4.25516e+00 -2.06770e+00 -9.67361e+00
       H -4.98885e+00 -5.12420e-01 -7.16343e+00
       O -8.20274e+00 -9.89264e+00  6.69649e-01
       H  7.23444e+00 -1.08580e+01  1.75333e-01
       H -6.83397e+00 -1.09677e+01  3.59676e-01
       O -3.92337e+00 -2.62629e+00  7.30561e-01
       H -5.52565e+00 -3.77429e+00  4.20516e-01
       H -2.51426e+00 -3.88326e+00  3.70350e-01
       O -3.95996e+00 -1.25161e+01  1.30993e+01
       H -3.95386e+00 -1.44740e+01  1.38822e+01
       H -4.16593e+00 -1.25443e+01  1.13457e+01
       O -8.16311e+00 -5.10219e+00  1.30285e+01
       H -8.12614e+00 -7.19473e+00  1.34609e+01