192
# CELL(abcABC):   16.99620    29.43815    27.67315    90.00000    90.00000    90.00000  Step:           0  Bead:      21 positions{atomic_unit}  cell{atomic_unit}
       O -8.22215e+00 -9.94239e+00 -1.31733e+01
       H  7.30664e+00 -1.09711e+01 -1.36322e+01
       H -6.70615e+00 -1.09482e+01 -1.35006e+01
       O -3.97298e+00 -2.58228e+00 -1.31734e+01
       H -5.44033e+00 -3.61131e+00 -1.36317e+01
       H -2.45697e+00 -3.58820e+00 -1.35005e+01
       O -3.95756e+00 -1.25543e+01 -7.82386e-01
       H -3.95604e+00 -1.43515e+01 -2.29143e-01
       H -4.14759e+00 -1.25671e+01 -2.59983e+00
       O -8.20667e+00 -5.19495e+00 -7.82227e-01
       H -8.20527e+00 -6.99211e+00 -2.28860e-01
       H -8.39642e+00 -5.20788e+00 -2.59970e+00
       O -4.52495e+00 -1.21366e+01 -6.25523e+00
       H -6.04104e+00 -1.11308e+01 -6.58223e+00
       H -3.05766e+00 -1.11077e+01 -6.71383e+00
       O  8.22247e+00 -4.77716e+00 -6.25561e+00
       H  6.70639e+00 -3.77128e+00 -6.58235e+00
       H -7.30644e+00 -3.74813e+00 -6.71411e+00
       O  8.20650e+00 -9.52435e+00 -7.70064e+00
       H  8.39647e+00 -9.51190e+00 -9.51809e+00
       H  8.20529e+00 -7.72704e+00 -7.14768e+00
       O -4.54027e+00 -2.16431e+00 -7.70075e+00
       H -4.35006e+00 -2.15153e+00 -9.51816e+00
       H -4.54166e+00 -3.67089e-01 -7.14744e+00
       O -8.22211e+00 -9.94193e+00  6.63469e-01
       H  7.30672e+00 -1.09707e+01  2.04633e-01
       H -6.70609e+00 -1.09478e+01  3.36365e-01
       O -3.97290e+00 -2.58257e+00  6.63081e-01
       H -5.44032e+00 -3.61148e+00  2.04655e-01
       H -2.45688e+00 -3.58848e+00  3.35971e-01
       O -3.95760e+00 -1.25545e+01  1.30538e+01
       H -3.95614e+00 -1.43517e+01  1.36071e+01
       H -4.14757e+00 -1.25673e+01  1.12363e+01
       O -8.20656e+00 -5.19529e+00  1.30545e+01
       H -8.20517e+00 -6.99250e+00  1.36078e+01
       H -8.39634e+00 -5.20824e+00  1.12370e+01
       O -4.52490e+00 -1.21367e+01  7.58138e+00
       H -6.04102e+00 -1.11309e+01  7.25435e+00
       H -3.05757e+00 -1.11078e+01  7.12272e+00
       O  8.22232e+00 -4.77760e+00  7.58065e+00
       H  6.70627e+00 -3.77169e+00  7.25392e+00
       H -7.30657e+00 -3.74862e+00  7.12211e+00
       O  8.20656e+00 -9.52478e+00  6.13597e+00
       H  8.39651e+00 -9.51229e+00  4.31849e+00
       H  8.20527e+00 -7.72747e+00  6.68889e+00
       O -4.54025e+00 -2.16471e+00  6.13560e+00
       H -4.34999e+00 -2.15183e+00  4.31818e+00
       H -4.54168e+00 -3.67533e-01  6.68897e+00
       O -8.22212e+00  4.77724e+00 -1.31733e+01
       H  7.30671e+00  3.74833e+00 -1.36320e+01
       H -6.70607e+00  3.77135e+00 -1.35002e+01
       O -3.97288e+00  1.21369e+01 -1.31734e+01
       H -5.44030e+00  1.11079e+01 -1.36317e+01
       H -2.45689e+00  1.11310e+01 -1.35006e+01
       O -3.95757e+00  2.16435e+00 -7.82368e-01
       H -3.95607e+00  3.67109e-01 -2.29207e-01
       H -4.14756e+00  2.15166e+00 -2.59983e+00
       O -8.20667e+00  9.52420e+00 -7.81868e-01
       H -8.20527e+00  7.72699e+00 -2.28645e-01
       H -8.39652e+00  9.51128e+00 -2.59932e+00
       O -4.52494e+00  2.58246e+00 -6.25501e+00
       H -6.04100e+00  3.58821e+00 -6.58223e+00
       H -3.05758e+00  3.61139e+00 -6.71360e+00
       O  8.22236e+00  9.94146e+00 -6.25587e+00
       H  6.70631e+00  1.09474e+01 -6.58279e+00
       H -7.30653e+00  1.09705e+01 -6.71435e+00
       O  8.20665e+00  5.19438e+00 -7.70097e+00
       H  8.39659e+00  5.20693e+00 -9.51844e+00
       H  8.20533e+00  6.99167e+00 -7.14797e+00
       O -4.54026e+00  1.25545e+01 -7.70081e+00
       H -4.34992e+00  1.25674e+01 -9.51823e+00
       H -4.54169e+00  1.43517e+01 -7.14749e+00
       O -8.22210e+00  4.77691e+00  6.62996e-01
       H  7.30665e+00  3.74808e+00  2.04431e-01
       H -6.70613e+00  3.77091e+00  3.36028e-01
       O -3.97279e+00  1.21369e+01  6.63306e-01
       H -5.44019e+00  1.11079e+01  2.05006e-01
       H -2.45681e+00  1.11309e+01  3.36133e-01
       O -3.95757e+00  2.16479e+00  1.30545e+01
       H -3.95616e+00  3.67575e-01  1.36077e+01
       H -4.14769e+00  2.15200e+00  1.12370e+01
       O -8.20659e+00  9.52434e+00  1.30546e+01
       H -8.20522e+00  7.72713e+00  1.36079e+01
       H -8.39644e+00  9.51145e+00  1.12371e+01
       O -4.52499e+00  2.58228e+00  7.58148e+00
       H -6.04100e+00  3.58814e+00  7.25437e+00
       H -3.05766e+00  3.61126e+00  7.12297e+00
       O  8.22229e+00  9.94203e+00  7.58108e+00
       H  6.70627e+00  1.09480e+01  7.25419e+00
       H -7.30655e+00  1.09710e+01  7.12260e+00
       O  8.20668e+00  5.19493e+00  6.13567e+00
       H  8.39670e+00  5.20749e+00  4.31823e+00
       H  8.20535e+00  6.99219e+00  6.68874e+00
       O -4.54018e+00  1.25546e+01  6.13603e+00
       H -4.34989e+00  1.25674e+01  4.31861e+00
       H -4.54161e+00  1.43518e+01  6.68925e+00
       O  2.75877e-01 -9.94198e+00 -1.31737e+01
       H -1.19147e+00 -1.09709e+01 -1.36323e+01
       H  1.79191e+00 -1.09478e+01 -1.35009e+01
       O  4.52479e+00 -2.58220e+00 -1.31736e+01
       H  3.05750e+00 -3.61120e+00 -1.36322e+01
       H  6.04084e+00 -3.58815e+00 -1.35003e+01
       O  4.54038e+00 -1.25538e+01 -7.82378e-01
       H  4.54166e+00 -1.43510e+01 -2.29173e-01
       H  4.35042e+00 -1.25666e+01 -2.59983e+00
       O  2.91382e-01 -5.19489e+00 -7.82498e-01
       H  2.92775e-01 -6.99208e+00 -2.29179e-01
       H  1.01240e-01 -5.20770e+00 -2.59994e+00
       O  3.97307e+00 -1.21369e+01 -6.25482e+00
       H  2.45707e+00 -1.11310e+01 -6.58187e+00
       H  5.44043e+00 -1.11080e+01 -6.71350e+00
       O -2.76167e-01 -4.77714e+00 -6.25484e+00
       H -1.79215e+00 -3.77120e+00 -6.58193e+00
       H  1.19122e+00 -3.74822e+00 -6.71327e+00
       O -2.91294e-01 -9.52406e+00 -7.70061e+00
       H -1.01153e-01 -9.51128e+00 -9.51804e+00
       H -2.92737e-01 -7.72684e+00 -7.14734e+00
       O  3.95740e+00 -2.16468e+00 -7.70029e+00
       H  4.14711e+00 -2.15178e+00 -9.51779e+00
       H  3.95613e+00 -3.67477e-01 -7.14700e+00
       O  2.75838e-01 -9.94166e+00  6.63265e-01
       H -1.19143e+00 -1.09706e+01  2.04532e-01
       H  1.79197e+00 -1.09474e+01  3.36068e-01
       O  4.52471e+00 -2.58218e+00  6.62891e-01
       H  3.05743e+00 -3.61117e+00  2.04240e-01
       H  6.04080e+00 -3.58806e+00  3.36089e-01
       O  4.54037e+00 -1.25543e+01  1.30539e+01
       H  4.54173e+00 -1.43516e+01  1.36070e+01
       H  4.35050e+00 -1.25670e+01  1.12364e+01
       O  2.91297e-01 -5.19502e+00  1.30541e+01
       H  2.92732e-01 -6.99225e+00  1.36074e+01
       H  1.01206e-01 -5.20786e+00  1.12367e+01
       O  3.97310e+00 -1.21368e+01  7.58177e+00
       H  2.45707e+00 -1.11309e+01  7.25464e+00
       H  5.44051e+00 -1.11080e+01  7.12302e+00
       O -2.76100e-01 -4.77767e+00  7.58136e+00
       H -1.79210e+00 -3.77177e+00  7.25428e+00
       H  1.19125e+00 -3.74871e+00  7.12290e+00
       O -2.91340e-01 -9.52458e+00  6.13593e+00
       H -1.01282e-01 -9.51181e+00  4.31852e+00
       H -2.92762e-01 -7.72734e+00  6.68916e+00
       O  3.95728e+00 -2.16475e+00  6.13602e+00
       H  4.14704e+00 -2.15175e+00  4.31853e+00
       H  3.95603e+00 -3.67615e-01  6.68942e+00
       O  2.75872e-01  4.77775e+00 -1.31735e+01
       H -1.19145e+00  3.74868e+00 -1.36320e+01
       H  1.79192e+00  3.77189e+00 -1.35005e+01
       O  4.52473e+00  1.21369e+01 -1.31737e+01
       H  3.05744e+00  1.11080e+01 -1.36325e+01
       H  6.04082e+00  1.11311e+01 -1.35004e+01
       O  4.54033e+00  2.16480e+00 -7.82502e-01
       H  4.54166e+00  3.67553e-01 -2.29384e-01
       H  4.35052e+00  2.15214e+00 -2.60000e+00
       O  2.91442e-01  9.52423e+00 -7.82681e-01
       H  2.92837e-01  7.72701e+00 -2.29452e-01
       H  1.01299e-01  9.51146e+00 -2.60013e+00
       O  3.97319e+00  2.58230e+00 -6.25496e+00
       H  2.45717e+00  3.58819e+00 -6.58198e+00
       H  5.44056e+00  3.61109e+00 -6.71379e+00
       O -2.76125e-01  9.94167e+00 -6.25515e+00
       H -1.79212e+00  1.09476e+01 -6.58222e+00
       H  1.19126e+00  1.09706e+01 -6.71377e+00
       O -2.91369e-01  5.19475e+00 -7.70046e+00
       H -1.01380e-01  5.20765e+00 -9.51793e+00
       H -2.92793e-01  6.99195e+00 -7.14718e+00
       O  3.95737e+00  1.25543e+01 -7.70076e+00
       H  4.14703e+00  1.25673e+01 -9.51824e+00
       H  3.95606e+00  1.43514e+01 -7.14726e+00
       O  2.75794e-01  4.77734e+00  6.62959e-01
       H -1.19152e+00  3.74832e+00  2.04499e-01
       H  1.79186e+00  3.77147e+00  3.35887e-01
       O  4.52464e+00  1.21373e+01  6.62988e-01
       H  3.05745e+00  1.11082e+01  2.04218e-01
       H  6.04076e+00  1.11314e+01  3.36450e-01
       O  4.54041e+00  2.16499e+00  1.30543e+01
       H  4.54178e+00  3.67749e-01  1.36074e+01
       H  4.35054e+00  2.15228e+00  1.12368e+01
       O  2.91308e-01  9.52457e+00  1.30538e+01
       H  2.92715e-01  7.72735e+00  1.36071e+01
       H  1.01225e-01  9.51181e+00  1.12363e+01
       O  3.97315e+00  2.58235e+00  7.58152e+00
       H  2.45713e+00  3.58829e+00  7.25455e+00
       H  5.44048e+00  3.61122e+00  7.12279e+00
       O -2.76008e-01  9.94202e+00  7.58171e+00
       H -1.79205e+00  1.09479e+01  7.25468e+00
       H  1.19134e+00  1.09710e+01  7.12317e+00
       O -2.91416e-01  5.19510e+00  6.13606e+00
       H -1.01371e-01  5.20795e+00  4.31863e+00
       H -2.92777e-01  6.99228e+00  6.68938e+00
       O  3.95729e+00  1.25546e+01  6.13612e+00
       H  4.14688e+00  1.25676e+01  4.31864e+00
       H  3.95603e+00  1.43518e+01  6.68952e+00
192
# CELL(abcABC):   16.99620    29.43815    27.67315    90.00000    90.00000    90.00000  Step:          10  Bead:      21 positions{atomic_unit}  cell{atomic_unit}
       O -8.24950e+00 -9.98053e+00 -1.31008e+01
       H  7.21742e+00 -1.08795e+01 -1.34749e+01
       H -6.61563e+00 -1.11316e+01 -1.36080e+01
       O -4.01402e+00 -2.52987e+00 -1.32135e+01
       H -5.70846e+00 -3.61716e+00 -1.35950e+01
       H -2.26695e+00 -3.53948e+00 -1.33613e+01
       O -3.91003e+00 -1.25412e+01 -7.64701e-01
       H -3.94844e+00 -1.41921e+01 -3.76134e-01
       H -4.36292e+00 -1.25935e+01 -2.61125e+00
       O -8.18657e+00 -5.23504e+00 -7.36111e-01
       H -8.29695e+00 -6.99915e+00 -8.60356e-02
       H -8.88186e+00 -5.20532e+00 -2.51381e+00
       O -4.47243e+00 -1.21334e+01 -6.29674e+00
       H -6.07818e+00 -1.09128e+01 -6.90417e+00
       H -3.06427e+00 -1.12058e+01 -6.83537e+00
       O  8.20638e+00 -4.78087e+00 -6.36671e+00
       H  6.77499e+00 -3.97849e+00 -6.41042e+00
       H -7.21312e+00 -3.73128e+00 -6.89761e+00
       O  8.14106e+00 -9.52604e+00 -7.64313e+00
       H  8.47323e+00 -9.40563e+00 -9.70954e+00
       H  7.85459e+00 -7.76280e+00 -7.20256e+00
       O -4.54496e+00 -2.17427e+00 -7.73823e+00
       H -4.26315e+00 -2.16233e+00 -9.50042e+00
       H -4.70784e+00 -4.19309e-01 -7.18870e+00
       O -8.25925e+00 -9.90320e+00  6.28942e-01
       H  7.43265e+00 -1.09815e+01  8.32601e-02
       H -6.96783e+00 -1.09426e+01  1.72247e-01
       O -3.95075e+00 -2.55628e+00  6.55563e-01
       H -5.38513e+00 -3.86833e+00  2.82970e-01
       H -2.57488e+00 -3.97613e+00  2.25200e-01
       O -3.94244e+00 -1.25627e+01  1.30552e+01
       H -3.84692e+00 -1.44831e+01  1.38017e+01
       H -4.19782e+00 -1.25571e+01  1.12728e+01
       O -8.23421e+00 -5.21125e+00  1.31635e+01
       H -8.10127e+00 -7.08433e+00  1.33955e+01
       H -8.64916e+00 -5.17580e+00  1.10229e+01
       O -4.48966e+00 -1.21827e+01  7.58519e+00
       H -6.19364e+00 -1.10967e+01  7.18675e+00
       H -3.25588e+00 -1.10117e+01  7.18844e+00
       O  8.23115e+00 -4.79118e+00  7.57510e+00
       H  6.76499e+00 -3.89891e+00  7.26652e+00
       H -7.45418e+00 -3.84785e+00  7.06578e+00
       O  8.21490e+00 -9.53768e+00  6.15875e+00
       H  8.43979e+00 -9.27777e+00  4.41124e+00
       H  8.52227e+00 -7.62424e+00  6.74608e+00
       O -4.52256e+00 -2.10140e+00  6.10733e+00
       H -4.31069e+00 -2.40617e+00  4.21157e+00
       H -4.48222e+00 -3.64495e-01  6.56995e+00
       O -8.20428e+00  4.77336e+00 -1.32111e+01
       H  7.43708e+00  3.72543e+00 -1.34237e+01
       H -6.60099e+00  3.61449e+00 -1.35354e+01
       O -3.96030e+00  1.21830e+01 -1.31384e+01
       H -5.41587e+00  1.12254e+01 -1.32364e+01
       H -2.20971e+00  1.11499e+01 -1.32769e+01
       O -3.98246e+00  2.17947e+00 -7.77837e-01
       H -4.10650e+00  3.95746e-01 -3.21974e-01
       H -4.11244e+00  2.21769e+00 -2.65280e+00
       O -8.23435e+00  9.46968e+00 -7.53317e-01
       H -8.17489e+00  7.88437e+00 -2.45139e-01
       H -8.20015e+00  9.65321e+00 -2.64643e+00
       O -4.51582e+00  2.62621e+00 -6.28241e+00
       H -5.99691e+00  3.48668e+00 -6.32394e+00
       H -2.92333e+00  3.81427e+00 -6.60737e+00
       O  8.17355e+00  9.92834e+00 -6.30196e+00
       H  6.52160e+00  1.08290e+01 -6.54469e+00
       H -7.04173e+00  1.10876e+01 -6.71659e+00
       O  8.22100e+00  5.15875e+00 -7.66317e+00
       H  8.50457e+00  5.47464e+00 -9.43533e+00
       H  8.05204e+00  6.87060e+00 -6.86460e+00
       O -4.55476e+00  1.25788e+01 -7.73960e+00
       H -4.38427e+00  1.24426e+01 -9.45580e+00
       H -4.50192e+00  1.43699e+01 -7.11246e+00
       O -8.17763e+00  4.81218e+00  6.97259e-01
       H  7.30829e+00  3.64034e+00  1.59655e-01
       H -6.63410e+00  3.35768e+00  4.68566e-01
       O -3.95416e+00  1.21407e+01  6.67762e-01
       H -5.47630e+00  1.10741e+01  2.57713e-01
       H -2.46726e+00  1.11957e+01  1.51665e-01
       O -3.98953e+00  2.17054e+00  1.29836e+01
       H -4.12334e+00  2.47472e-01  1.35220e+01
       H -4.20024e+00  2.21896e+00  1.10325e+01
       O -8.22797e+00  9.51539e+00  1.30778e+01
       H -8.35496e+00  7.62456e+00  1.35462e+01
       H -8.40661e+00  9.39315e+00  1.10476e+01
       O -4.51555e+00  2.56819e+00  7.54527e+00
       H -6.22059e+00  3.55853e+00  7.30670e+00
       H -3.21943e+00  3.54821e+00  6.82209e+00
       O  8.16376e+00  9.95833e+00  7.60065e+00
       H  6.72405e+00  1.11546e+01  7.00973e+00
       H -7.22935e+00  1.10498e+01  7.17202e+00
       O  8.26122e+00  5.13958e+00  6.21378e+00
       H  8.32808e+00  5.44864e+00  4.43186e+00
       H  8.17546e+00  6.92164e+00  6.63932e+00
       O -4.54922e+00  1.25450e+01  6.15231e+00
       H -4.64467e+00  1.23909e+01  4.32411e+00
       H -4.38529e+00  1.42263e+01  6.59523e+00
       O  2.93454e-01 -9.88076e+00 -1.31751e+01
       H -1.29502e+00 -1.08191e+01 -1.36539e+01
       H  1.82464e+00 -1.09276e+01 -1.31026e+01
       O  4.51616e+00 -2.59193e+00 -1.31804e+01
       H  3.28032e+00 -3.73583e+00 -1.36529e+01
       H  5.82291e+00 -3.68712e+00 -1.36033e+01
       O  4.53123e+00 -1.24900e+01 -8.62958e-01
       H  4.51165e+00 -1.43768e+01 -2.81167e-01
       H  4.38276e+00 -1.25804e+01 -2.72766e+00
       O  2.92186e-01 -5.28645e+00 -8.06912e-01
       H  2.79296e-01 -7.09147e+00 -2.91016e-01
       H  9.30617e-02 -5.21331e+00 -2.47037e+00
       O  3.96347e+00 -1.21228e+01 -6.21750e+00
       H  2.31767e+00 -1.11719e+01 -6.59521e+00
       H  5.53286e+00 -1.10277e+01 -6.78461e+00
       O -3.02843e-01 -4.77322e+00 -6.28447e+00
       H -1.85169e+00 -3.75783e+00 -6.61187e+00
       H  1.12371e+00 -3.75967e+00 -6.87352e+00
       O -2.51004e-01 -9.52614e+00 -7.65189e+00
       H -3.59309e-02 -9.28679e+00 -9.72889e+00
       H -7.41146e-02 -7.65309e+00 -7.54253e+00
       O  3.97990e+00 -2.16907e+00 -7.70251e+00
       H  4.12692e+00 -2.19656e+00 -9.49245e+00
       H  3.77233e+00 -7.21777e-03 -7.27784e+00
       O  2.16889e-01 -9.88237e+00  5.68824e-01
       H -1.13654e+00 -1.08925e+01 -1.67726e-01
       H  1.78113e+00 -1.11304e+01  3.80541e-01
       O  4.53122e+00 -2.60214e+00  6.20702e-01
       H  2.92689e+00 -3.64952e+00  4.50652e-02
       H  6.01890e+00 -3.69528e+00  2.52547e-01
       O  4.56610e+00 -1.25678e+01  1.30961e+01
       H  4.40614e+00 -1.44371e+01  1.33164e+01
       H  4.61187e+00 -1.25459e+01  1.11719e+01
       O  2.53229e-01 -5.24221e+00  1.30682e+01
       H  9.13151e-02 -7.31883e+00  1.37210e+01
       H  4.42638e-01 -5.33791e+00  1.10632e+01
       O  3.89554e+00 -1.21185e+01  7.58521e+00
       H  2.14736e+00 -1.13200e+01  7.37242e+00
       H  5.58892e+00 -1.10018e+01  7.25100e+00
       O -1.90287e-01 -4.79880e+00  7.60661e+00
       H -1.87258e+00 -3.75960e+00  7.06970e+00
       H  9.57254e-01 -3.62322e+00  7.18328e+00
       O -2.79646e-01 -9.59190e+00  6.15956e+00
       H -1.22604e-01 -9.46636e+00  4.37791e+00
       H -2.87552e-01 -7.69384e+00  6.80218e+00
       O  3.99373e+00 -2.18258e+00  6.14046e+00
       H  4.18716e+00 -2.43955e+00  4.24066e+00
       H  4.05220e+00 -4.44077e-01  6.77381e+00
       O  2.58643e-01  4.78905e+00 -1.30455e+01
       H -1.11731e+00  3.81267e+00 -1.37939e+01
       H  1.78633e+00  3.81966e+00 -1.35706e+01
       O  4.48481e+00  1.21330e+01 -1.32102e+01
       H  2.91680e+00  1.08896e+01 -1.34924e+01
       H  5.99246e+00  1.08729e+01 -1.32410e+01
       O  4.51759e+00  2.17227e+00 -7.56780e-01
       H  4.73841e+00  3.13658e-01 -2.27150e-01
       H  4.20390e+00  2.35127e+00 -2.37339e+00
       O  2.24467e-01  9.53955e+00 -7.22488e-01
       H  1.65141e-01  7.58596e+00 -1.99890e-01
       H  1.82605e-01  9.51004e+00 -2.71256e+00
       O  3.98495e+00  2.60518e+00 -6.18966e+00
       H  2.33124e+00  3.46724e+00 -6.86262e+00
       H  5.49825e+00  3.51043e+00 -6.48900e+00
       O -2.23988e-01  9.90449e+00 -6.30742e+00
       H -1.88633e+00  1.08587e+01 -6.32052e+00
       H  1.34015e+00  1.10975e+01 -6.63868e+00
       O -3.50023e-01  5.14585e+00 -7.65755e+00
       H -1.18288e-01  5.33786e+00 -9.43912e+00
       H -2.10356e-01  7.15020e+00 -7.13703e+00
       O  3.97027e+00  1.25469e+01 -7.76812e+00
       H  4.50978e+00  1.26650e+01 -9.66152e+00
       H  3.81429e+00  1.44906e+01 -7.04224e+00
       O  2.50392e-01  4.79424e+00  7.24696e-01
       H -1.27958e+00  3.78284e+00  3.30401e-01
       H  1.83762e+00  3.65516e+00  3.76195e-01
       O  4.48606e+00  1.21436e+01  6.87986e-01
       H  2.86156e+00  1.11646e+01  2.29920e-01
       H  6.30488e+00  1.11374e+01  2.14838e-01
       O  4.54358e+00  2.15206e+00  1.30657e+01
       H  4.59555e+00  1.91075e-01  1.37150e+01
       H  4.21899e+00  2.14378e+00  1.13337e+01
       O  2.87432e-01  9.57587e+00  1.30475e+01
       H  4.17753e-01  7.47930e+00  1.37795e+01
       H -3.88029e-02  9.57650e+00  1.12943e+01
       O  3.95384e+00  2.59644e+00  7.60601e+00
       H  2.52479e+00  3.37753e+00  7.24470e+00
       H  5.62919e+00  3.45674e+00  7.05012e+00
       O -3.80069e-01  9.91606e+00  7.56062e+00
       H -1.75211e+00  1.11507e+01  7.07615e+00
       H  1.29467e+00  1.09356e+01  7.31676e+00
       O -1.98556e-01  5.24253e+00  6.09642e+00
       H -2.47503e-01  5.01713e+00  4.39185e+00
       H -2.82880e-01  6.91104e+00  6.80043e+00
       O  3.93357e+00  1.25078e+01  6.12677e+00
       H  4.14740e+00  1.26423e+01  4.03433e+00
       H  3.69699e+00  1.44694e+01  6.54545e+00
192
# CELL(abcABC):   16.99620    29.43815    27.67315    90.00000    90.00000    90.00000  Step:          20  Bead:      21 positions{atomic_unit}  cell{atomic_unit}
       O -8.20757e+00 -9.97521e+00 -1.30157e+01
       H  7.18367e+00 -1.08917e+01 -1.35792e+01
       H -6.76601e+00 -1.08769e+01 -1.36327e+01
       O -3.90634e+00 -2.54709e+00 -1.31353e+01
       H -5.22334e+00 -3.84692e+00 -1.35647e+01
       H -2.44255e+00 -3.48243e+00 -1.35438e+01
       O -3.94272e+00 -1.24585e+01 -8.15928e-01
       H -3.72989e+00 -1.44182e+01 -1.55201e-01
       H -4.05746e+00 -1.27726e+01 -2.60461e+00
       O -8.18299e+00 -5.22771e+00 -7.24834e-01
       H -8.21884e+00 -6.93594e+00  8.44152e-02
       H -8.74972e+00 -5.19200e+00 -2.59297e+00
       O -4.55557e+00 -1.22121e+01 -6.29433e+00
       H -5.89169e+00 -1.09028e+01 -7.18101e+00
       H -2.70323e+00 -1.09095e+01 -6.65164e+00
       O  8.26044e+00 -4.71549e+00 -6.38370e+00
       H  6.53676e+00 -4.09070e+00 -6.64270e+00
       H -7.33433e+00 -3.80513e+00 -6.95982e+00
       O  8.15338e+00 -9.49441e+00 -7.64715e+00
       H  8.15450e+00 -9.41714e+00 -9.57322e+00
       H  8.09284e+00 -7.74294e+00 -7.08995e+00
       O -4.51334e+00 -2.17519e+00 -7.69447e+00
       H -4.05465e+00 -1.99876e+00 -9.51300e+00
       H -4.98910e+00 -5.15942e-01 -7.01076e+00
       O -8.31427e+00 -9.87643e+00  6.28663e-01
       H  7.35557e+00 -1.11447e+01  2.43651e-01
       H -7.17494e+00 -1.11103e+01  1.38902e-01
       O -3.97847e+00 -2.47847e+00  7.69076e-01
       H -5.37466e+00 -3.94178e+00  2.78825e-01
       H -2.49464e+00 -3.58626e+00  1.28839e-01
       O -3.92464e+00 -1.25237e+01  1.31230e+01
       H -3.94038e+00 -1.46671e+01  1.37277e+01
       H -4.18590e+00 -1.24650e+01  1.13048e+01
       O -8.21180e+00 -5.17170e+00  1.30676e+01
       H -8.02472e+00 -7.27098e+00  1.34762e+01
       H -8.63271e+00 -5.16952e+00  1.10492e+01
       O -4.52515e+00 -1.21362e+01  7.58007e+00
       H -6.13050e+00 -1.11092e+01  7.10225e+00
       H -3.32598e+00 -1.08736e+01  7.29566e+00
       O  8.19291e+00 -4.77385e+00  7.51410e+00
       H  6.37969e+00 -3.88218e+00  7.10129e+00
       H -6.89666e+00 -3.77161e+00  6.94795e+00
       O  8.20905e+00 -9.47619e+00  6.19391e+00
       H  8.40689e+00 -9.09634e+00  4.32598e+00
       H  8.41156e+00 -7.72856e+00  6.83190e+00
       O -4.48596e+00 -2.06873e+00  6.13951e+00
       H -4.30071e+00 -2.53109e+00  4.21314e+00
       H -4.60089e+00 -1.68835e-01  6.64646e+00
       O -8.23261e+00  4.77983e+00 -1.32150e+01
       H  7.16096e+00  3.94354e+00 -1.34560e+01
       H -6.69682e+00  3.43999e+00 -1.35187e+01
       O -4.01798e+00  1.22269e+01 -1.31989e+01
       H -5.63488e+00  1.15241e+01 -1.34759e+01
       H -2.22595e+00  1.11704e+01 -1.34804e+01
       O -3.95403e+00  2.17769e+00 -8.22308e-01
       H -4.03339e+00  5.00521e-01 -2.18328e-01
       H -4.29473e+00  2.05618e+00 -2.65668e+00
       O -8.26303e+00  9.44961e+00 -7.23725e-01
       H -8.04194e+00  7.55575e+00 -1.48739e-01
       H -7.98876e+00  9.54744e+00 -2.73589e+00
       O -4.52853e+00  2.57762e+00 -6.28896e+00
       H -6.13772e+00  3.43494e+00 -6.48111e+00
       H -2.98928e+00  3.83624e+00 -6.51728e+00
       O  8.15118e+00  9.92797e+00 -6.28441e+00
       H  6.53076e+00  1.09234e+01 -6.65985e+00
       H -6.97636e+00  1.10980e+01 -6.68688e+00
       O  8.19600e+00  5.26649e+00 -7.69573e+00
       H  8.73287e+00  5.33975e+00 -9.44254e+00
       H  8.35068e+00  7.24101e+00 -6.50500e+00
       O -4.52596e+00  1.26262e+01 -7.77588e+00
       H -4.46440e+00  1.25388e+01 -9.87715e+00
       H -4.43702e+00  1.44726e+01 -7.40203e+00
       O -8.19455e+00  4.69066e+00  6.90741e-01
       H  7.40687e+00  3.67111e+00  1.61575e-01
       H -6.81998e+00  3.42658e+00  3.77575e-01
       O -3.98563e+00  1.21168e+01  6.06955e-01
       H -5.64225e+00  1.09841e+01  4.74216e-01
       H -2.31735e+00  1.11356e+01  5.39529e-01
       O -3.96098e+00  2.18278e+00  1.30284e+01
       H -3.87349e+00  2.19934e-01  1.33678e+01
       H -4.33949e+00  2.09517e+00  1.12320e+01
       O -8.22681e+00  9.46028e+00  1.30918e+01
       H -8.16928e+00  7.62942e+00  1.33930e+01
       H -8.44544e+00  9.63002e+00  1.12615e+01
       O -4.51604e+00  2.50597e+00  7.55691e+00
       H -6.08884e+00  3.38760e+00  7.30445e+00
       H -3.09689e+00  3.34716e+00  6.86225e+00
       O  8.16340e+00  1.00580e+01  7.56187e+00
       H  6.87812e+00  1.11874e+01  6.76830e+00
       H -7.35438e+00  1.08603e+01  7.37871e+00
       O  8.18126e+00  5.15535e+00  6.17538e+00
       H  8.47676e+00  5.29040e+00  4.38132e+00
       H  7.95967e+00  6.83375e+00  6.89870e+00
       O -4.55674e+00  1.25776e+01  6.11621e+00
       H -4.53435e+00  1.25977e+01  4.26271e+00
       H -4.50412e+00  1.44197e+01  6.67810e+00
       O  3.05800e-01 -9.84393e+00 -1.32248e+01
       H -1.36462e+00 -1.05564e+01 -1.35678e+01
       H  1.82213e+00 -1.06869e+01 -1.30438e+01
       O  4.57722e+00 -2.65150e+00 -1.31911e+01
       H  3.12065e+00 -3.84853e+00 -1.39429e+01
       H  6.15883e+00 -3.82569e+00 -1.38874e+01
       O  4.62952e+00 -1.25010e+01 -8.56513e-01
       H  4.67947e+00 -1.42406e+01 -2.29580e-01
       H  4.36468e+00 -1.25724e+01 -2.66591e+00
       O  3.48193e-01 -5.25679e+00 -8.31324e-01
       H  3.99896e-01 -7.03534e+00 -3.38844e-01
       H  1.92049e-01 -5.09284e+00 -2.64156e+00
       O  3.96402e+00 -1.21036e+01 -6.16673e+00
       H  2.55022e+00 -1.12349e+01 -6.64480e+00
       H  5.66693e+00 -1.09325e+01 -6.86595e+00
       O -3.29261e-01 -4.75436e+00 -6.35500e+00
       H -1.97815e+00 -3.92484e+00 -6.71236e+00
       H  1.07673e+00 -3.72081e+00 -6.99498e+00
       O -2.47214e-01 -9.46183e+00 -7.68382e+00
       H -3.20955e-01 -9.53894e+00 -9.83628e+00
       H -5.21307e-01 -7.47699e+00 -7.54287e+00
       O  4.00814e+00 -2.21666e+00 -7.75435e+00
       H  4.17395e+00 -2.49282e+00 -9.31256e+00
       H  3.81404e+00 -2.41948e-01 -6.97063e+00
       O  2.60657e-01 -9.92682e+00  5.33277e-01
       H -1.05678e+00 -1.10806e+01 -3.98909e-01
       H  1.54443e+00 -1.11839e+01  5.38618e-01
       O  4.45081e+00 -2.63430e+00  5.55189e-01
       H  3.18740e+00 -3.85647e+00  3.62499e-02
       H  6.10176e+00 -3.72407e+00  4.60732e-01
       O  4.57814e+00 -1.25144e+01  1.30604e+01
       H  4.37681e+00 -1.43561e+01  1.32482e+01
       H  4.10897e+00 -1.25104e+01  1.11630e+01
       O  2.13818e-01 -5.23864e+00  1.31050e+01
       H  2.14128e-01 -7.02176e+00  1.37352e+01
       H  2.81676e-01 -5.34770e+00  1.12228e+01
       O  3.79935e+00 -1.21134e+01  7.61008e+00
       H  2.23798e+00 -1.12635e+01  7.52516e+00
       H  5.44409e+00 -1.09826e+01  7.18019e+00
       O -2.32607e-01 -4.82524e+00  7.61623e+00
       H -1.91253e+00 -3.54323e+00  7.43609e+00
       H  1.19275e+00 -3.64949e+00  7.12088e+00
       O -3.22903e-01 -9.62357e+00  6.13166e+00
       H -1.45274e-01 -9.77749e+00  4.23293e+00
       H -1.35347e-01 -7.66088e+00  6.66185e+00
       O  4.02022e+00 -2.13832e+00  6.14879e+00
       H  4.15128e+00 -2.31717e+00  4.15461e+00
       H  3.87883e+00 -4.27054e-01  6.68654e+00
       O  2.23508e-01  4.83137e+00 -1.30779e+01
       H -1.06287e+00  3.76899e+00 -1.40447e+01
       H  1.56300e+00  3.72488e+00 -1.39233e+01
       O  4.42669e+00  1.21657e+01 -1.32265e+01
       H  2.86233e+00  1.09375e+01 -1.36319e+01
       H  6.05221e+00  1.10679e+01 -1.31692e+01
       O  4.50918e+00  2.11298e+00 -7.38094e-01
       H  4.51913e+00  4.07505e-01 -6.53516e-02
       H  4.22810e+00  2.23730e+00 -2.68445e+00
       O  1.56154e-01  9.54956e+00 -7.20880e-01
       H  3.10379e-01  7.77203e+00 -2.52100e-01
       H  5.86730e-01  9.27476e+00 -2.53517e+00
       O  3.89538e+00  2.57082e+00 -6.18043e+00
       H  2.31721e+00  3.62350e+00 -6.90223e+00
       H  5.60029e+00  3.14907e+00 -6.57378e+00
       O -1.97299e-01  9.90112e+00 -6.30182e+00
       H -1.90548e+00  1.08460e+01 -6.45095e+00
       H  1.15706e+00  1.11923e+01 -6.50712e+00
       O -3.08473e-01  5.11928e+00 -7.64808e+00
       H  4.26816e-02  5.21241e+00 -9.78273e+00
       H -3.18535e-01  7.18043e+00 -7.03782e+00
       O  3.94901e+00  1.26029e+01 -7.73829e+00
       H  4.79081e+00  1.27531e+01 -9.56150e+00
       H  3.77128e+00  1.46166e+01 -6.80328e+00
       O  3.00937e-01  4.79466e+00  6.43203e-01
       H -1.25015e+00  3.85332e+00  1.70158e-01
       H  1.77925e+00  3.54787e+00  7.03480e-01
       O  4.46645e+00  1.21614e+01  6.50529e-01
       H  3.05526e+00  1.09795e+01  4.16790e-01
       H  5.89049e+00  1.09867e+01  8.42600e-02
       O  4.48515e+00  2.25216e+00  1.29592e+01
       H  4.64426e+00  3.88069e-01  1.35441e+01
       H  4.36850e+00  2.08554e+00  1.12183e+01
       O  2.66001e-01  9.60088e+00  1.30669e+01
       H  6.79374e-01  7.49851e+00  1.38932e+01
       H  2.09444e-01  9.41108e+00  1.11294e+01
       O  3.94960e+00  2.53180e+00  7.63410e+00
       H  2.31794e+00  3.18361e+00  7.40095e+00
       H  5.32443e+00  3.45395e+00  7.03826e+00
       O -4.70516e-01  9.91962e+00  7.59077e+00
       H -1.62770e+00  1.12647e+01  7.59577e+00
       H  1.27275e+00  1.07560e+01  7.16138e+00
       O -2.27028e-01  5.28725e+00  6.14556e+00
       H -1.28229e-01  5.19578e+00  4.22448e+00
       H -2.38358e-01  6.90945e+00  6.71729e+00
       O  3.91313e+00  1.24650e+01  6.14543e+00
       H  3.99875e+00  1.28744e+01  4.20334e+00
       H  3.76386e+00  1.42115e+01  6.72164e+00
192
# CELL(abcABC):   16.99620    29.43815    27.67315    90.00000    90.00000    90.00000  Step:          30  Bead:      21 positions{atomic_unit}  cell{atomic_unit}
       O -8.19788e+00 -1.00822e+01 -1.30189e+01
       H  7.32476e+00 -1.09258e+01 -1.33028e+01
       H -6.59080e+00 -1.08227e+01 -1.36717e+01
       O -3.89663e+00 -2.48644e+00 -1.31085e+01
       H -5.35794e+00 -3.52813e+00 -1.34624e+01
       H -2.46266e+00 -3.54155e+00 -1.38847e+01
       O -3.94933e+00 -1.24794e+01 -7.89741e-01
       H -3.95250e+00 -1.43827e+01 -2.45701e-01
       H -4.26749e+00 -1.26284e+01 -2.55656e+00
       O -8.23315e+00 -5.21360e+00 -6.95585e-01
       H -7.99103e+00 -7.19486e+00 -8.33108e-02
       H -8.69861e+00 -4.94057e+00 -2.58579e+00
       O -4.49938e+00 -1.21535e+01 -6.26201e+00
       H -5.91147e+00 -1.08835e+01 -7.19837e+00
       H -2.66196e+00 -1.10106e+01 -6.29236e+00
       O  8.25808e+00 -4.71585e+00 -6.35163e+00
       H  6.50194e+00 -3.83122e+00 -6.63606e+00
       H -7.38061e+00 -3.70947e+00 -7.04334e+00
       O  8.18198e+00 -9.48306e+00 -7.64447e+00
       H  8.33008e+00 -9.26795e+00 -9.32394e+00
       H  8.23476e+00 -7.66115e+00 -6.94416e+00
       O -4.47101e+00 -2.09657e+00 -7.59676e+00
       H -3.71286e+00 -2.00907e+00 -9.26045e+00
       H -5.01373e+00 -5.11969e-01 -6.94126e+00
       O -8.33200e+00 -9.85559e+00  6.28527e-01
       H  7.25968e+00 -1.11355e+01  1.89315e-01
       H -7.11606e+00 -1.09910e+01  6.40978e-02
       O -3.92289e+00 -2.55134e+00  8.22901e-01
       H -5.19637e+00 -3.92920e+00  5.15498e-01
       H -2.44027e+00 -3.53081e+00  4.71193e-01
       O -3.92169e+00 -1.25406e+01  1.31229e+01
       H -4.14756e+00 -1.45874e+01  1.36585e+01
       H -4.21079e+00 -1.26720e+01  1.14338e+01
       O -8.18469e+00 -5.16056e+00  1.30657e+01
       H -8.01216e+00 -7.00704e+00  1.34900e+01