192
# CELL(abcABC):   16.99620    29.43815    27.67315    90.00000    90.00000    90.00000  Step:           0  Bead:      15 positions{atomic_unit}  cell{atomic_unit}
       O -8.21943e+00 -9.93714e+00 -1.31733e+01
       H  7.30975e+00 -1.09659e+01 -1.36333e+01
       H -6.70309e+00 -1.09427e+01 -1.35003e+01
       O -3.97045e+00 -2.57760e+00 -1.31733e+01
       H -5.43740e+00 -3.60640e+00 -1.36335e+01
       H -2.45410e+00 -3.58307e+00 -1.35002e+01
       O -3.95479e+00 -1.25494e+01 -7.82537e-01
       H -3.95303e+00 -1.43463e+01 -2.27998e-01
       H -4.14654e+00 -1.25640e+01 -2.59980e+00
       O -8.20381e+00 -5.18980e+00 -7.82573e-01
       H -8.20206e+00 -6.98662e+00 -2.28079e-01
       H -8.39554e+00 -5.20430e+00 -2.59985e+00
       O -4.52774e+00 -1.21415e+01 -6.25501e+00
       H -6.04401e+00 -1.11359e+01 -6.58198e+00
       H -3.06070e+00 -1.11128e+01 -6.71509e+00
       O  8.21948e+00 -4.78197e+00 -6.25503e+00
       H  6.70316e+00 -3.77646e+00 -6.58191e+00
       H -7.30970e+00 -3.75321e+00 -6.71514e+00
       O  8.20373e+00 -9.52922e+00 -7.70081e+00
       H  8.39566e+00 -9.51468e+00 -9.51806e+00
       H  8.20220e+00 -7.73240e+00 -7.14624e+00
       O -4.54345e+00 -2.16975e+00 -7.70084e+00
       H -4.35162e+00 -2.15526e+00 -9.51812e+00
       H -4.54503e+00 -3.72917e-01 -7.14634e+00
       O -8.21943e+00 -9.93697e+00  6.63195e-01
       H  7.30977e+00 -1.09657e+01  2.03202e-01
       H -6.70308e+00 -1.09425e+01  3.36227e-01
       O -3.97044e+00 -2.57760e+00  6.63173e-01
       H -5.43747e+00 -3.60635e+00  2.03069e-01
       H -2.45410e+00 -3.58312e+00  3.36346e-01
       O -3.95472e+00 -1.25494e+01  1.30540e+01
       H -3.95309e+00 -1.43462e+01  1.36086e+01
       H -4.14653e+00 -1.25640e+01  1.12368e+01
       O -8.20380e+00 -5.18990e+00  1.30541e+01
       H -8.20202e+00 -6.98672e+00  1.36085e+01
       H -8.39553e+00 -5.20434e+00  1.12368e+01
       O -4.52771e+00 -1.21415e+01  7.58159e+00
       H -6.04402e+00 -1.11360e+01  7.25460e+00
       H -3.06070e+00 -1.11128e+01  7.12152e+00
       O  8.21944e+00 -4.78191e+00  7.58149e+00
       H  6.70312e+00 -3.77633e+00  7.25453e+00
       H -7.30974e+00 -3.75322e+00  7.12139e+00
       O  8.20378e+00 -9.52926e+00  6.13582e+00
       H  8.39564e+00 -9.51474e+00  4.31856e+00
       H  8.20221e+00 -7.73246e+00  6.69037e+00
       O -4.54344e+00 -2.16971e+00  6.13568e+00
       H -4.35161e+00 -2.15522e+00  4.31840e+00
       H -4.54506e+00 -3.72896e-01  6.69017e+00
       O -8.21947e+00  4.78210e+00 -1.31734e+01
       H  7.30974e+00  3.75335e+00 -1.36334e+01
       H -6.70314e+00  3.77651e+00 -1.35002e+01
       O -3.97046e+00  1.21415e+01 -1.31733e+01
       H -5.43745e+00  1.11127e+01 -1.36334e+01
       H -2.45410e+00  1.11360e+01 -1.35002e+01
       O -3.95479e+00  2.16971e+00 -7.82462e-01
       H -3.95303e+00  3.72884e-01 -2.27933e-01
       H -4.14646e+00  2.15509e+00 -2.59975e+00
       O -8.20376e+00  9.52923e+00 -7.82499e-01
       H -8.20200e+00  7.73238e+00 -2.27998e-01
       H -8.39546e+00  9.51472e+00 -2.59977e+00
       O -4.52774e+00  2.57749e+00 -6.25512e+00
       H -6.04400e+00  3.58312e+00 -6.58197e+00
       H -3.06066e+00  3.60618e+00 -6.71512e+00
       O  8.21949e+00  9.93715e+00 -6.25509e+00
       H  6.70318e+00  1.09426e+01 -6.58202e+00
       H -7.30970e+00  1.09659e+01 -6.71526e+00
       O  8.20366e+00  5.18988e+00 -7.70077e+00
       H  8.39552e+00  5.20437e+00 -9.51803e+00
       H  8.20217e+00  6.98669e+00 -7.14625e+00
       O -4.54337e+00  1.25494e+01 -7.70088e+00
       H -4.35159e+00  1.25639e+01 -9.51817e+00
       H -4.54500e+00  1.43462e+01 -7.14634e+00
       O -8.21952e+00  4.78190e+00  6.63226e-01
       H  7.30971e+00  3.75313e+00  2.03107e-01
       H -6.70317e+00  3.77635e+00  3.36440e-01
       O -3.97040e+00  1.21415e+01  6.63326e-01
       H -5.43738e+00  1.11127e+01  2.03185e-01
       H -2.45407e+00  1.11360e+01  3.36426e-01
       O -3.95476e+00  2.16964e+00  1.30541e+01
       H -3.95303e+00  3.72832e-01  1.36087e+01
       H -4.14651e+00  2.15510e+00  1.12369e+01
       O -8.20373e+00  9.52937e+00  1.30540e+01
       H -8.20206e+00  7.73252e+00  1.36085e+01
       H -8.39548e+00  9.51483e+00  1.12368e+01
       O -4.52770e+00  2.57756e+00  7.58140e+00
       H -6.04399e+00  3.58315e+00  7.25450e+00
       H -3.06066e+00  3.60630e+00  7.12138e+00
       O  8.21951e+00  9.93714e+00  7.58157e+00
       H  6.70319e+00  1.09427e+01  7.25463e+00
       H -7.30968e+00  1.09658e+01  7.12140e+00
       O  8.20369e+00  5.18993e+00  6.13578e+00
       H  8.39547e+00  5.20441e+00  4.31850e+00
       H  8.20212e+00  6.98674e+00  6.69030e+00
       O -4.54348e+00  1.25494e+01  6.13570e+00
       H -4.35158e+00  1.25639e+01  4.31845e+00
       H -4.54503e+00  1.43462e+01  6.69025e+00
       O  2.78573e-01 -9.93717e+00 -1.31734e+01
       H -1.18842e+00 -1.09659e+01 -1.36336e+01
       H  1.79493e+00 -1.09427e+01 -1.35002e+01
       O  4.52772e+00 -2.57751e+00 -1.31733e+01
       H  3.06068e+00 -3.60627e+00 -1.36334e+01
       H  6.04403e+00 -3.58305e+00 -1.35003e+01
       O  4.54334e+00 -1.25494e+01 -7.82465e-01
       H  4.54513e+00 -1.43463e+01 -2.27989e-01
       H  4.35168e+00 -1.25640e+01 -2.59974e+00
       O  2.94294e-01 -5.18980e+00 -7.82487e-01
       H  2.96032e-01 -6.98663e+00 -2.28053e-01
       H  1.02602e-01 -5.20427e+00 -2.59977e+00
       O  3.97042e+00 -1.21415e+01 -6.25517e+00
       H  2.45414e+00 -1.11359e+01 -6.58198e+00
       H  5.43747e+00 -1.11128e+01 -6.71526e+00
       O -2.78672e-01 -4.78194e+00 -6.25508e+00
       H -1.79498e+00 -3.77636e+00 -6.58199e+00
       H  1.18837e+00 -3.75320e+00 -6.71514e+00
       O -2.94511e-01 -9.52920e+00 -7.70081e+00
       H -1.02600e-01 -9.51466e+00 -9.51806e+00
       H -2.96005e-01 -7.73240e+00 -7.14625e+00
       O  3.95462e+00 -2.16972e+00 -7.70080e+00
       H  4.14654e+00 -2.15521e+00 -9.51804e+00
       H  3.95318e+00 -3.72879e-01 -7.14628e+00
       O  2.78541e-01 -9.93701e+00  6.63104e-01
       H -1.18842e+00 -1.09658e+01  2.03011e-01
       H  1.79493e+00 -1.09425e+01  3.36333e-01
       O  4.52773e+00 -2.57757e+00  6.63187e-01
       H  3.06068e+00 -3.60633e+00  2.03125e-01
       H  6.04402e+00 -3.58308e+00  3.36357e-01
       O  4.54332e+00 -1.25494e+01  1.30541e+01
       H  4.54518e+00 -1.43462e+01  1.36086e+01
       H  4.35169e+00 -1.25640e+01  1.12368e+01
       O  2.94281e-01 -5.18991e+00  1.30541e+01
       H  2.95995e-01 -6.98675e+00  1.36085e+01
       H  1.02570e-01 -5.20435e+00  1.12368e+01
       O  3.97044e+00 -1.21415e+01  7.58145e+00
       H  2.45413e+00 -1.11360e+01  7.25466e+00
       H  5.43745e+00 -1.11128e+01  7.12135e+00
       O -2.78601e-01 -4.78191e+00  7.58148e+00
       H -1.79495e+00 -3.77634e+00  7.25458e+00
       H  1.18839e+00 -3.75323e+00  7.12138e+00
       O -2.94501e-01 -9.52922e+00  6.13582e+00
       H -1.02637e-01 -9.51466e+00  4.31854e+00
       H -2.96013e-01 -7.73241e+00  6.69035e+00
       O  3.95462e+00 -2.16967e+00  6.13570e+00
       H  4.14656e+00 -2.15516e+00  4.31844e+00
       H  3.95315e+00 -3.72836e-01  6.69024e+00
       O  2.78636e-01  4.78206e+00 -1.31735e+01
       H -1.18832e+00  3.75329e+00 -1.36335e+01
       H  1.79499e+00  3.77651e+00 -1.35003e+01
       O  4.52773e+00  1.21415e+01 -1.31733e+01
       H  3.06066e+00  1.11127e+01 -1.36334e+01
       H  6.04403e+00  1.11360e+01 -1.35003e+01
       O  4.54332e+00  2.16970e+00 -7.82499e-01
       H  4.54510e+00  3.72872e-01 -2.27973e-01
       H  4.35161e+00  2.15513e+00 -2.59979e+00
       O  2.94188e-01  9.52923e+00 -7.82517e-01
       H  2.95976e-01  7.73239e+00 -2.28033e-01
       H  1.02486e-01  9.51470e+00 -2.59980e+00
       O  3.97041e+00  2.57752e+00 -6.25508e+00
       H  2.45414e+00  3.58307e+00 -6.58188e+00
       H  5.43747e+00  3.60626e+00 -6.71516e+00
       O -2.78677e-01  9.93714e+00 -6.25506e+00
       H -1.79497e+00  1.09427e+01 -6.58203e+00
       H  1.18838e+00  1.09659e+01 -6.71517e+00
       O -2.94451e-01  5.18990e+00 -7.70074e+00
       H -1.02475e-01  5.20442e+00 -9.51799e+00
       H -2.95971e-01  6.98671e+00 -7.14623e+00
       O  3.95453e+00  1.25494e+01 -7.70088e+00
       H  4.14650e+00  1.25638e+01 -9.51813e+00
       H  3.95314e+00  1.43462e+01 -7.14638e+00
       O  2.78666e-01  4.78190e+00  6.63181e-01
       H -1.18838e+00  3.75314e+00  2.03219e-01
       H  1.79499e+00  3.77637e+00  3.36305e-01
       O  4.52768e+00  1.21415e+01  6.63233e-01
       H  3.06065e+00  1.11127e+01  2.03130e-01
       H  6.04402e+00  1.11359e+01  3.36318e-01
       O  4.54337e+00  2.16963e+00  1.30541e+01
       H  4.54515e+00  3.72778e-01  1.36085e+01
       H  4.35165e+00  2.15511e+00  1.12368e+01
       O  2.94139e-01  9.52935e+00  1.30540e+01
       H  2.96028e-01  7.73252e+00  1.36085e+01
       H  1.02508e-01  9.51480e+00  1.12368e+01
       O  3.97044e+00  2.57752e+00  7.58146e+00
       H  2.45409e+00  3.58312e+00  7.25468e+00
       H  5.43745e+00  3.60627e+00  7.12136e+00
       O -2.78642e-01  9.93713e+00  7.58156e+00
       H -1.79498e+00  1.09426e+01  7.25459e+00
       H  1.18834e+00  1.09658e+01  7.12145e+00
       O -2.94462e-01  5.18993e+00  6.13575e+00
       H -1.02485e-01  5.20444e+00  4.31854e+00
       H -2.95928e-01  6.98677e+00  6.69031e+00
       O  3.95461e+00  1.25493e+01  6.13580e+00
       H  4.14651e+00  1.25638e+01  4.31854e+00
       H  3.95313e+00  1.43462e+01  6.69028e+00
192
# CELL(abcABC):   16.99620    29.43815    27.67315    90.00000    90.00000    90.00000  Step:          10  Bead:      15 positions{atomic_unit}  cell{atomic_unit}
       O -8.25197e+00 -9.94466e+00 -1.31345e+01
       H  7.15990e+00 -1.09913e+01 -1.36554e+01
       H -6.79976e+00 -1.10766e+01 -1.35285e+01
       O -3.98277e+00 -2.58430e+00 -1.31801e+01
       H -5.45678e+00 -3.66707e+00 -1.35608e+01
       H -2.45624e+00 -3.65833e+00 -1.36657e+01
       O -3.99569e+00 -1.25395e+01 -7.63217e-01
       H -3.99522e+00 -1.43932e+01 -1.15934e-01
       H -4.26226e+00 -1.25800e+01 -2.57010e+00
       O -8.18055e+00 -5.18534e+00 -7.47143e-01
       H -8.39930e+00 -6.98075e+00 -3.02168e-01
       H -8.18544e+00 -5.15538e+00 -2.47927e+00
       O -4.54446e+00 -1.21222e+01 -6.24309e+00
       H -5.93008e+00 -1.10667e+01 -6.58306e+00
       H -2.92948e+00 -1.12797e+01 -6.86890e+00
       O  8.22153e+00 -4.76918e+00 -6.25510e+00
       H  6.82699e+00 -3.70315e+00 -6.65823e+00
       H -7.32075e+00 -3.79512e+00 -6.88194e+00
       O  8.19581e+00 -9.48911e+00 -7.67618e+00
       H  8.38145e+00 -9.45172e+00 -9.42176e+00
       H  8.22644e+00 -7.61085e+00 -7.10868e+00
       O -4.55090e+00 -2.17039e+00 -7.71788e+00
       H -4.32682e+00 -2.16121e+00 -9.54738e+00
       H -4.78540e+00 -4.58390e-01 -7.16345e+00
       O -8.19326e+00 -9.89693e+00  6.90150e-01
       H  7.36003e+00 -1.08310e+01  2.13671e-01
       H -6.75425e+00 -1.08062e+01  3.90445e-01
       O -3.93490e+00 -2.62598e+00  6.34674e-01
       H -5.52903e+00 -3.64255e+00  1.70742e-01
       H -2.46399e+00 -3.42418e+00  2.50176e-01
       O -3.96214e+00 -1.25293e+01  1.31049e+01
       H -3.95466e+00 -1.42833e+01  1.36114e+01
       H -4.12372e+00 -1.25331e+01  1.12728e+01
       O -8.17527e+00 -5.17882e+00  1.30093e+01
       H -8.14562e+00 -6.96877e+00  1.36736e+01
       H -8.24338e+00 -5.15404e+00  1.10672e+01
       O -4.54202e+00 -1.21083e+01  7.54777e+00
       H -6.00655e+00 -1.11369e+01  7.30983e+00
       H -2.96187e+00 -1.10402e+01  7.04538e+00
       O  8.20423e+00 -4.77432e+00  7.56119e+00
       H  6.80831e+00 -3.72079e+00  7.21426e+00
       H -7.22589e+00 -3.70767e+00  7.20111e+00
       O  8.21560e+00 -9.51839e+00  6.16068e+00
       H  8.30074e+00 -9.51667e+00  4.37808e+00
       H  8.27598e+00 -7.71608e+00  6.83804e+00
       O -4.57673e+00 -2.13781e+00  6.10987e+00
       H -4.22839e+00 -2.28910e+00  4.33427e+00
       H -4.58548e+00 -3.17395e-01  6.75136e+00
       O -8.22675e+00  4.75558e+00 -1.31736e+01
       H  7.32870e+00  3.75331e+00 -1.36186e+01
       H -6.75572e+00  3.72032e+00 -1.35653e+01
       O -3.94130e+00  1.21296e+01 -1.31801e+01
       H -5.48115e+00  1.12023e+01 -1.38104e+01
       H -2.33309e+00  1.11765e+01 -1.34567e+01
       O -3.95346e+00  2.16440e+00 -7.90409e-01
       H -3.89097e+00  4.97170e-01 -2.42716e-01
       H -4.22429e+00  2.00079e+00 -2.45945e+00
       O -8.19168e+00  9.51775e+00 -7.90989e-01
       H -8.20560e+00  7.60345e+00 -2.67572e-01
       H -8.43881e+00  9.40848e+00 -2.63550e+00
       O -4.54361e+00  2.59783e+00 -6.26310e+00
       H -6.09075e+00  3.65535e+00 -6.54910e+00
       H -3.17008e+00  3.60119e+00 -6.77254e+00
       O  8.20421e+00  9.89931e+00 -6.31136e+00
       H  6.81475e+00  1.10196e+01 -6.65190e+00
       H -7.25412e+00  1.07693e+01 -6.60541e+00
       O  8.19525e+00  5.21236e+00 -7.71754e+00
       H  8.28568e+00  4.95651e+00 -9.55090e+00
       H  8.12776e+00  7.11616e+00 -7.31079e+00
       O -4.53437e+00  1.25202e+01 -7.69580e+00
       H -4.52898e+00  1.24870e+01 -9.61862e+00
       H -4.49338e+00  1.44672e+01 -7.02006e+00
       O -8.19906e+00  4.76906e+00  6.32017e-01
       H  7.34621e+00  3.68247e+00  2.36976e-01
       H -6.57085e+00  3.65777e+00  2.52204e-01
       O -3.95833e+00  1.20919e+01  6.27113e-01
       H -5.45445e+00  1.11111e+01  2.92629e-01
       H -2.39743e+00  1.11283e+01  4.55280e-01
       O -3.91934e+00  2.21229e+00  1.30370e+01
       H -4.05796e+00  4.94261e-01  1.35025e+01
       H -4.22509e+00  2.29039e+00  1.12541e+01
       O -8.19400e+00  9.54927e+00  1.30961e+01
       H -8.25461e+00  7.78399e+00  1.35109e+01
       H -8.40061e+00  9.49398e+00  1.12282e+01
       O -4.54634e+00  2.57797e+00  7.61477e+00
       H -6.04758e+00  3.62742e+00  7.18780e+00
       H -3.13030e+00  3.63988e+00  7.09917e+00
       O  8.23773e+00  9.92929e+00  7.59493e+00
       H  6.73922e+00  1.08976e+01  7.02646e+00
       H -7.27446e+00  1.09330e+01  7.19742e+00
       O  8.18825e+00  5.18548e+00  6.13142e+00
       H  8.40259e+00  5.28582e+00  4.38226e+00
       H  8.02461e+00  7.03359e+00  6.75829e+00
       O -4.53151e+00  1.25243e+01  6.14686e+00
       H -4.32603e+00  1.26558e+01  4.51836e+00
       H -4.58020e+00  1.44835e+01  6.83367e+00
       O  2.71129e-01 -9.93755e+00 -1.31684e+01
       H -1.16879e+00 -1.09678e+01 -1.36615e+01
       H  1.75598e+00 -1.08494e+01 -1.35535e+01
       O  4.57437e+00 -2.62478e+00 -1.31644e+01
       H  3.20519e+00 -3.56643e+00 -1.36993e+01
       H  5.93350e+00 -3.54532e+00 -1.35910e+01
       O  4.57658e+00 -1.25840e+01 -8.49059e-01
       H  4.64940e+00 -1.43399e+01 -2.53449e-01
       H  4.40866e+00 -1.24159e+01 -2.44607e+00
       O  2.73766e-01 -5.14059e+00 -7.68665e-01
       H  2.66547e-01 -6.98009e+00 -2.30499e-01
       H  1.98745e-01 -5.10315e+00 -2.54135e+00
       O  3.93562e+00 -1.21679e+01 -6.21702e+00
       H  2.35722e+00 -1.12246e+01 -6.64366e+00
       H  5.44173e+00 -1.11269e+01 -6.71759e+00
       O -2.81617e-01 -4.80250e+00 -6.24889e+00
       H -2.05541e+00 -3.83371e+00 -6.49717e+00
       H  1.23178e+00 -3.94189e+00 -6.82032e+00
       O -2.84807e-01 -9.53524e+00 -7.69038e+00
       H -1.58004e-01 -9.52436e+00 -9.46905e+00
       H -3.91472e-01 -7.67532e+00 -7.18221e+00
       O  3.99819e+00 -2.24222e+00 -7.66331e+00
       H  4.08126e+00 -2.00499e+00 -9.45446e+00
       H  4.00860e+00 -3.91814e-01 -7.13197e+00
       O  2.80046e-01 -9.94782e+00  6.68653e-01
       H -1.08758e+00 -1.09732e+01  2.22901e-01
       H  1.70426e+00 -1.10424e+01  3.46703e-01
       O  4.52855e+00 -2.59304e+00  6.50722e-01
       H  3.09402e+00 -3.70709e+00  3.15200e-01
       H  6.16435e+00 -3.50878e+00  4.03868e-01
       O  4.56281e+00 -1.25039e+01  1.30678e+01
       H  4.61313e+00 -1.43775e+01  1.36294e+01
       H  4.16070e+00 -1.24346e+01  1.12586e+01
       O  2.93539e-01 -5.19333e+00  1.30277e+01
       H  4.42080e-01 -7.00137e+00  1.35492e+01
       H  1.40025e-01 -5.18154e+00  1.13596e+01
       O  3.95160e+00 -1.21228e+01  7.58497e+00
       H  2.47270e+00 -1.12181e+01  7.26076e+00
       H  5.31765e+00 -1.10395e+01  7.20380e+00
       O -2.54626e-01 -4.76021e+00  7.62606e+00
       H -1.79600e+00 -3.80140e+00  7.24768e+00
       H  1.07640e+00 -3.73539e+00  7.23821e+00
       O -2.83467e-01 -9.55104e+00  6.14602e+00
       H -9.06770e-02 -9.59475e+00  4.29416e+00
       H -4.32782e-01 -7.68644e+00  6.73163e+00
       O  3.98023e+00 -2.16598e+00  6.12036e+00
       H  4.14546e+00 -2.14272e+00  4.26184e+00
       H  3.94488e+00 -3.36346e-01  6.65146e+00
       O  3.02249e-01  4.78553e+00 -1.31782e+01
       H -1.18507e+00  3.78020e+00 -1.35986e+01
       H  1.77948e+00  3.77851e+00 -1.36490e+01
       O  4.51031e+00  1.21834e+01 -1.31688e+01
       H  3.16520e+00  1.11141e+01 -1.36829e+01
       H  6.00661e+00  1.11669e+01 -1.34899e+01
       O  4.50047e+00  2.18853e+00 -7.74229e-01
       H  4.57589e+00  5.43783e-01 -2.13939e-01
       H  4.36801e+00  2.17880e+00 -2.46032e+00
       O  2.66045e-01  9.54158e+00 -7.73061e-01
       H  2.76966e-01  7.73220e+00 -1.69254e-01
       H  1.83204e-01  9.55789e+00 -2.52720e+00
       O  3.96121e+00  2.57053e+00 -6.26487e+00
       H  2.57495e+00  3.44385e+00 -6.33359e+00
       H  5.47297e+00  3.58550e+00 -6.66430e+00
       O -2.84134e-01  9.95030e+00 -6.24234e+00
       H -1.73828e+00  1.09113e+01 -6.45221e+00
       H  1.29132e+00  1.08791e+01 -6.62700e+00
       O -2.94028e-01  5.15994e+00 -7.66455e+00
       H  7.12214e-02  5.14751e+00 -9.57454e+00
       H -2.89905e-01  7.06313e+00 -7.09523e+00
       O  3.98476e+00  1.25545e+01 -7.69601e+00
       H  4.18327e+00  1.25340e+01 -9.56060e+00
       H  4.11286e+00  1.43114e+01 -7.07989e+00
       O  2.83827e-01  4.77989e+00  6.51605e-01
       H -1.16089e+00  3.73594e+00  2.59050e-02
       H  1.73431e+00  3.66958e+00  3.93188e-01
       O  4.50723e+00  1.21654e+01  6.57456e-01
       H  3.11528e+00  1.10184e+01  1.95726e-01
       H  6.05126e+00  1.11671e+01  3.16966e-01
       O  4.51564e+00  2.20489e+00  1.30451e+01
       H  4.58681e+00  2.82165e-01  1.36714e+01
       H  4.42536e+00  2.22023e+00  1.12610e+01
       O  2.65173e-01  9.52615e+00  1.30754e+01
       H  3.48130e-01  7.73447e+00  1.37192e+01
       H  9.78064e-02  9.49613e+00  1.13061e+01
       O  3.99311e+00  2.60273e+00  7.58749e+00
       H  2.43018e+00  3.57506e+00  7.34304e+00
       H  5.50852e+00  3.71182e+00  7.03503e+00
       O -2.73690e-01  9.92056e+00  7.56285e+00
       H -1.87304e+00  1.07810e+01  7.22973e+00
       H  1.23295e+00  1.08713e+01  7.31101e+00
       O -3.23827e-01  5.17733e+00  6.15860e+00
       H -3.11117e-01  5.09374e+00  4.49156e+00
       H -2.58599e-01  6.80385e+00  6.71624e+00
       O  3.97571e+00  1.25355e+01  6.14036e+00
       H  4.02207e+00  1.26139e+01  4.47509e+00
       H  3.99918e+00  1.44599e+01  6.89330e+00
192
# CELL(abcABC):   16.99620    29.43815    27.67315    90.00000    90.00000    90.00000  Step:          20  Bead:      15 positions{atomic_unit}  cell{atomic_unit}
       O -8.28667e+00 -9.95341e+00 -1.31161e+01
       H  7.10756e+00 -1.09287e+01 -1.35228e+01
       H -6.87742e+00 -1.12800e+01 -1.34703e+01
       O -4.00955e+00 -2.58980e+00 -1.31565e+01
       H -5.35101e+00 -3.64951e+00 -1.35383e+01
       H -2.37499e+00 -3.63052e+00 -1.37129e+01
       O -3.98918e+00 -1.25501e+01 -7.69481e-01
       H -4.21560e+00 -1.43651e+01 -1.50436e-01
       H -4.27928e+00 -1.25723e+01 -2.56892e+00
       O -8.15963e+00 -5.16543e+00 -7.68390e-01
       H -8.43973e+00 -6.93888e+00 -2.57334e-01
       H -8.08383e+00 -5.05213e+00 -2.46528e+00
       O -4.50755e+00 -1.20950e+01 -6.21023e+00
       H -5.86981e+00 -1.10671e+01 -6.48926e+00
       H -2.90163e+00 -1.11652e+01 -6.86986e+00
       O  8.21538e+00 -4.76158e+00 -6.28390e+00
       H  6.81032e+00 -3.68352e+00 -6.70375e+00
       H -7.18952e+00 -3.84599e+00 -6.86268e+00
       O  8.21254e+00 -9.48143e+00 -7.65639e+00
       H  8.41001e+00 -9.46604e+00 -9.46507e+00
       H  8.21229e+00 -7.64377e+00 -6.91143e+00
       O -4.57091e+00 -2.18629e+00 -7.73557e+00
       H -4.25826e+00 -2.09897e+00 -9.65519e+00
       H -4.86450e+00 -4.23061e-01 -7.05269e+00
       O -8.18960e+00 -9.86382e+00  6.61985e-01
       H  7.28627e+00 -1.08712e+01  3.11268e-01
       H -6.74935e+00 -1.08425e+01  2.95181e-01
       O -3.94301e+00 -2.67609e+00  6.72825e-01
       H -5.48720e+00 -3.53475e+00  3.74941e-01
       H -2.49443e+00 -3.65344e+00  2.16698e-01
       O -3.95052e+00 -1.25011e+01  1.30958e+01
       H -4.02761e+00 -1.44180e+01  1.38104e+01
       H -3.99184e+00 -1.25560e+01  1.12465e+01
       O -8.17613e+00 -5.12912e+00  1.30492e+01
       H -8.03148e+00 -7.02515e+00  1.37178e+01
       H -8.12023e+00 -5.29004e+00  1.10550e+01
       O -4.51979e+00 -1.21438e+01  7.55479e+00
       H -5.98559e+00 -1.10977e+01  7.21622e+00
       H -2.96413e+00 -1.11480e+01  7.15829e+00
       O  8.23389e+00 -4.76132e+00  7.55303e+00
       H  6.82034e+00 -3.71288e+00  7.15512e+00
       H -7.32615e+00 -3.51657e+00  7.25849e+00
       O  8.16655e+00 -9.52100e+00  6.18646e+00
       H  8.20806e+00 -9.37870e+00  4.32401e+00
       H  8.26580e+00 -7.72994e+00  6.76514e+00
       O -4.57385e+00 -2.10489e+00  6.14393e+00
       H -4.19305e+00 -2.11937e+00  4.22672e+00
       H -4.37458e+00 -1.65672e-01  6.67774e+00
       O -8.23078e+00  4.68394e+00 -1.31817e+01
       H  7.30356e+00  3.67667e+00 -1.35797e+01
       H -6.58656e+00  3.69545e+00 -1.36454e+01
       O -4.00593e+00  1.21484e+01 -1.31841e+01
       H -5.57550e+00  1.12309e+01 -1.38644e+01
       H -2.41626e+00  1.12390e+01 -1.33416e+01
       O -3.93024e+00  2.14076e+00 -8.28725e-01
       H -4.06662e+00  6.12143e-01 -2.26755e-01
       H -4.06888e+00  1.96486e+00 -2.56543e+00
       O -8.17816e+00  9.50993e+00 -8.16117e-01
       H -7.95115e+00  7.56588e+00 -2.88587e-01
       H -8.35244e+00  9.46700e+00 -2.71627e+00
       O -4.54002e+00  2.63759e+00 -6.26997e+00
       H -6.03608e+00  3.58299e+00 -6.31778e+00
       H -3.16392e+00  3.54119e+00 -6.71326e+00
       O  8.15832e+00  9.88520e+00 -6.29181e+00
       H  6.75253e+00  1.11447e+01 -6.63460e+00
       H -7.14871e+00  1.08089e+01 -6.52756e+00
       O  8.17117e+00  5.21407e+00 -7.74385e+00
       H  8.19471e+00  4.97174e+00 -9.54408e+00
       H  8.03921e+00  6.88361e+00 -7.25792e+00
       O -4.53218e+00  1.25239e+01 -7.72029e+00
       H -4.59500e+00  1.24691e+01 -9.51767e+00
       H -4.56694e+00  1.43805e+01 -7.06949e+00
       O -8.19628e+00  4.81383e+00  6.09616e-01
       H  7.47168e+00  3.70136e+00  3.95436e-01
       H -6.51211e+00  3.73781e+00  3.45658e-01
       O -3.95391e+00  1.21065e+01  5.79883e-01
       H -5.45700e+00  1.12099e+01  3.90834e-01
       H -2.52429e+00  1.13099e+01  5.80707e-01
       O -3.89127e+00  2.24367e+00  1.30850e+01
       H -4.15215e+00  5.89163e-01  1.32973e+01
       H -4.33637e+00  2.36803e+00  1.12070e+01
       O -8.19768e+00  9.53599e+00  1.30622e+01
       H -8.40636e+00  7.59134e+00  1.36739e+01
       H -8.45851e+00  9.51010e+00  1.12868e+01
       O -4.50455e+00  2.58204e+00  7.58479e+00
       H -6.11716e+00  3.59260e+00  7.09450e+00
       H -3.06939e+00  3.51538e+00  7.17324e+00
       O  8.22261e+00  9.93343e+00  7.61157e+00
       H  6.70912e+00  1.09983e+01  6.99005e+00
       H -7.16636e+00  1.09845e+01  7.19708e+00
       O  8.21856e+00  5.19767e+00  6.12835e+00
       H  8.37812e+00  5.31904e+00  4.19239e+00
       H  8.04387e+00  7.19771e+00  6.83868e+00
       O -4.57076e+00  1.25037e+01  6.11834e+00
       H -4.22390e+00  1.25744e+01  4.46946e+00
       H -4.62746e+00  1.45211e+01  6.99252e+00
       O  3.36250e-01 -9.94972e+00 -1.31821e+01
       H -1.09939e+00 -1.10790e+01 -1.37873e+01
       H  1.71650e+00 -1.08288e+01 -1.34871e+01
       O  4.59106e+00 -2.64126e+00 -1.31502e+01
       H  3.17223e+00 -3.52752e+00 -1.36829e+01
       H  5.89127e+00 -3.52702e+00 -1.36354e+01
       O  4.59493e+00 -1.26281e+01 -8.08439e-01
       H  4.60428e+00 -1.43722e+01 -4.40209e-01
       H  4.40830e+00 -1.23891e+01 -2.44978e+00
       O  2.78461e-01 -5.14414e+00 -7.45299e-01
       H  3.27917e-01 -7.14254e+00 -2.58126e-01
       H  2.02535e-01 -5.01709e+00 -2.51759e+00
       O  3.97498e+00 -1.21833e+01 -6.16298e+00
       H  2.37133e+00 -1.12981e+01 -6.79655e+00
       H  5.64553e+00 -1.10537e+01 -6.76324e+00
       O -2.72381e-01 -4.80520e+00 -6.27457e+00
       H -2.06240e+00 -3.87594e+00 -6.60472e+00
       H  1.29277e+00 -3.99851e+00 -6.98295e+00
       O -2.40971e-01 -9.57045e+00 -7.68509e+00
       H -2.26449e-01 -9.69052e+00 -9.58862e+00
       H -3.86062e-01 -7.59120e+00 -7.33178e+00
       O  3.97911e+00 -2.25756e+00 -7.65770e+00
       H  4.00107e+00 -1.99881e+00 -9.46129e+00
       H  4.09230e+00 -4.60575e-01 -7.17478e+00
       O  2.77028e-01 -9.92778e+00  6.59449e-01
       H -1.03712e+00 -1.10190e+01  2.54020e-01
       H  1.70362e+00 -1.09630e+01  2.80939e-01
       O  4.51972e+00 -2.59251e+00  6.39331e-01
       H  3.05924e+00 -3.81948e+00  3.24290e-01
       H  6.10269e+00 -3.44775e+00  4.42640e-01
       O  4.53992e+00 -1.24672e+01  1.30952e+01
       H  4.52140e+00 -1.45807e+01  1.36975e+01
       H  4.20398e+00 -1.25244e+01  1.13236e+01
       O  2.81277e-01 -5.21759e+00  1.30247e+01
       H  5.73588e-01 -6.74947e+00  1.34140e+01
       H  1.26924e-01 -5.22183e+00  1.11875e+01
       O  3.93668e+00 -1.21181e+01  7.57484e+00
       H  2.59858e+00 -1.12755e+01  7.38392e+00
       H  5.35690e+00 -1.10419e+01  7.02603e+00
       O -2.22704e-01 -4.74483e+00  7.62854e+00
       H -1.85450e+00 -3.77029e+00  7.28963e+00
       H  1.19759e+00 -3.75092e+00  7.32260e+00
       O -2.75877e-01 -9.56979e+00  6.15751e+00
       H -2.53851e-01 -9.58304e+00  4.32000e+00
       H -4.62048e-01 -7.82114e+00  6.79502e+00
       O  4.00504e+00 -2.20119e+00  6.12736e+00
       H  4.20953e+00 -2.14745e+00  4.28851e+00
       H  4.10977e+00 -3.99952e-01  6.64971e+00
       O  2.92839e-01  4.73533e+00 -1.31202e+01
       H -1.07210e+00  3.86138e+00 -1.37756e+01
       H  1.66075e+00  3.74703e+00 -1.36878e+01
       O  4.54514e+00  1.22004e+01 -1.31993e+01
       H  3.33663e+00  1.08818e+01 -1.37037e+01
       H  5.96686e+00  1.10498e+01 -1.36723e+01
       O  4.50063e+00  2.24927e+00 -7.83028e-01
       H  4.57989e+00  4.37627e-01 -1.14214e-01
       H  4.21781e+00  2.03885e+00 -2.50902e+00
       O  2.74509e-01  9.57062e+00 -7.44488e-01
       H  8.17157e-02  7.77400e+00 -1.05738e-01
       H  3.07096e-01  9.58750e+00 -2.61302e+00
       O  3.98624e+00  2.57820e+00 -6.25403e+00
       H  2.64245e+00  3.36291e+00 -6.23471e+00
       H  5.39953e+00  3.52318e+00 -6.73850e+00
       O -3.09036e-01  9.97572e+00 -6.26001e+00
       H -1.63805e+00  1.09366e+01 -6.56650e+00
       H  1.37533e+00  1.10185e+01 -6.62247e+00
       O -3.16736e-01  5.16952e+00 -7.69544e+00
       H -1.06970e-03  5.09972e+00 -9.48856e+00
       H -1.59614e-01  7.09581e+00 -7.19910e+00
       O  3.98114e+00  1.25718e+01 -7.68461e+00
       H  4.02755e+00  1.25450e+01 -9.70057e+00
       H  4.04920e+00  1.44369e+01 -7.08154e+00
       O  2.48829e-01  4.74667e+00  6.77745e-01
       H -1.20401e+00  3.63159e+00 -1.03901e-01
       H  1.86167e+00  3.64748e+00  4.38442e-01
       O  4.47729e+00  1.21410e+01  6.64232e-01
       H  3.20943e+00  1.09846e+01  1.06369e-01
       H  6.06555e+00  1.11279e+01  2.05681e-01
       O  4.53314e+00  2.20735e+00  1.30431e+01
       H  4.55399e+00  2.17049e-01  1.37912e+01
       H  4.50556e+00  2.14379e+00  1.11532e+01
       O  2.48552e-01  9.53538e+00  1.30915e+01
       H  5.08253e-01  7.72168e+00  1.38199e+01
       H  3.16834e-02  9.31659e+00  1.12355e+01
       O  3.98478e+00  2.58583e+00  7.57387e+00
       H  2.42887e+00  3.52398e+00  7.32150e+00
       H  5.52696e+00  3.78250e+00  7.09472e+00
       O -3.32473e-01  9.90030e+00  7.56223e+00
       H -1.78329e+00  1.05824e+01  7.28605e+00
       H  1.24032e+00  1.08403e+01  7.27420e+00
       O -3.14802e-01  5.18046e+00  6.12797e+00
       H -2.99059e-01  5.16316e+00  4.50261e+00
       H -3.35332e-01  6.89107e+00  6.60534e+00
       O  4.00806e+00  1.25049e+01  6.10116e+00
       H  4.09999e+00  1.28540e+01  4.39261e+00
       H  4.14721e+00  1.44176e+01  6.86886e+00
192
# CELL(abcABC):   16.99620    29.43815    27.67315    90.00000    90.00000    90.00000  Step:          30  Bead:      15 positions{atomic_unit}  cell{atomic_unit}
       O -8.24378e+00 -1.00126e+01 -1.31066e+01
       H  7.06262e+00 -1.08175e+01 -1.36835e+01
       H -6.87982e+00 -1.11083e+01 -1.35526e+01
       O -4.01235e+00 -2.58731e+00 -1.31391e+01
       H -5.29700e+00 -3.66490e+00 -1.35675e+01
       H -2.44473e+00 -3.58488e+00 -1.36285e+01
       O -3.95724e+00 -1.25332e+01 -7.48487e-01
       H -4.27235e+00 -1.41549e+01 -4.35146e-01
       H -4.29013e+00 -1.26586e+01 -2.73638e+00
       O -8.15088e+00 -5.13831e+00 -8.05632e-01
       H -8.39991e+00 -6.90229e+00 -2.23307e-01
       H -8.21165e+00 -4.93810e+00 -2.56262e+00
       O -4.50474e+00 -1.21401e+01 -6.19933e+00
       H -5.79925e+00 -1.09688e+01 -6.51911e+00
       H -2.88911e+00 -1.12319e+01 -6.71762e+00
       O  8.20333e+00 -4.79528e+00 -6.32766e+00
       H  6.83851e+00 -3.65994e+00 -6.72873e+00
       H -7.00409e+00 -3.85157e+00 -6.78290e+00
       O  8.21231e+00 -9.48267e+00 -7.65276e+00
       H  8.51777e+00 -9.50133e+00 -9.48697e+00
       H  8.15319e+00 -7.52349e+00 -6.78532e+00
       O -4.60362e+00 -2.14113e+00 -7.74707e+00
       H -4.22958e+00 -2.03356e+00 -9.58513e+00
       H -4.84704e+00 -4.06590e-01 -6.96730e+00
       O -8.22945e+00 -9.88038e+00  6.97099e-01
       H  7.24739e+00 -1.08378e+01  3.11709e-01
       H -6.72517e+00 -1.06693e+01  2.71188e-01
       O -3.91634e+00 -2.67871e+00  6.82340e-01
       H -5.39517e+00 -3.54504e+00  5.04264e-01
       H -2.64214e+00 -3.87166e+00  3.22530e-01
       O -3.95041e+00 -1.25050e+01  1.30862e+01
       H -4.01785e+00 -1.44523e+01  1.38487e+01
       H -4.04224e+00 -1.26300e+01  1.11889e+01
       O -8.20962e+00 -5.09334e+00  1.30222e+01
       H -7.93258e+00 -7.07127e+00  1.36643e+01