192
# CELL(abcABC):   16.99620    29.43815    27.67315    90.00000    90.00000    90.00000  Step:           0  Bead:      11 positions{atomic_unit}  cell{atomic_unit}
       O -8.22215e+00 -9.94239e+00 -1.31733e+01
       H  7.30664e+00 -1.09711e+01 -1.36322e+01
       H -6.70615e+00 -1.09482e+01 -1.35006e+01
       O -3.97298e+00 -2.58228e+00 -1.31734e+01
       H -5.44033e+00 -3.61131e+00 -1.36317e+01
       H -2.45697e+00 -3.58820e+00 -1.35005e+01
       O -3.95756e+00 -1.25543e+01 -7.82386e-01
       H -3.95604e+00 -1.43515e+01 -2.29143e-01
       H -4.14759e+00 -1.25671e+01 -2.59983e+00
       O -8.20667e+00 -5.19495e+00 -7.82227e-01
       H -8.20527e+00 -6.99211e+00 -2.28860e-01
       H -8.39642e+00 -5.20788e+00 -2.59970e+00
       O -4.52495e+00 -1.21366e+01 -6.25523e+00
       H -6.04104e+00 -1.11308e+01 -6.58223e+00
       H -3.05766e+00 -1.11077e+01 -6.71383e+00
       O  8.22247e+00 -4.77716e+00 -6.25561e+00
       H  6.70639e+00 -3.77128e+00 -6.58235e+00
       H -7.30644e+00 -3.74813e+00 -6.71411e+00
       O  8.20650e+00 -9.52435e+00 -7.70064e+00
       H  8.39647e+00 -9.51190e+00 -9.51809e+00
       H  8.20529e+00 -7.72704e+00 -7.14768e+00
       O -4.54027e+00 -2.16431e+00 -7.70075e+00
       H -4.35006e+00 -2.15153e+00 -9.51816e+00
       H -4.54166e+00 -3.67089e-01 -7.14744e+00
       O -8.22211e+00 -9.94193e+00  6.63469e-01
       H  7.30672e+00 -1.09707e+01  2.04633e-01
       H -6.70609e+00 -1.09478e+01  3.36365e-01
       O -3.97290e+00 -2.58257e+00  6.63081e-01
       H -5.44032e+00 -3.61148e+00  2.04655e-01
       H -2.45688e+00 -3.58848e+00  3.35971e-01
       O -3.95760e+00 -1.25545e+01  1.30538e+01
       H -3.95614e+00 -1.43517e+01  1.36071e+01
       H -4.14757e+00 -1.25673e+01  1.12363e+01
       O -8.20656e+00 -5.19529e+00  1.30545e+01
       H -8.20517e+00 -6.99250e+00  1.36078e+01
       H -8.39634e+00 -5.20824e+00  1.12370e+01
       O -4.52490e+00 -1.21367e+01  7.58138e+00
       H -6.04102e+00 -1.11309e+01  7.25435e+00
       H -3.05757e+00 -1.11078e+01  7.12272e+00
       O  8.22232e+00 -4.77760e+00  7.58065e+00
       H  6.70627e+00 -3.77169e+00  7.25392e+00
       H -7.30657e+00 -3.74862e+00  7.12211e+00
       O  8.20656e+00 -9.52478e+00  6.13597e+00
       H  8.39651e+00 -9.51229e+00  4.31849e+00
       H  8.20527e+00 -7.72747e+00  6.68889e+00
       O -4.54025e+00 -2.16471e+00  6.13560e+00
       H -4.34999e+00 -2.15183e+00  4.31818e+00
       H -4.54168e+00 -3.67533e-01  6.68897e+00
       O -8.22212e+00  4.77724e+00 -1.31733e+01
       H  7.30671e+00  3.74833e+00 -1.36320e+01
       H -6.70607e+00  3.77135e+00 -1.35002e+01
       O -3.97288e+00  1.21369e+01 -1.31734e+01
       H -5.44030e+00  1.11079e+01 -1.36317e+01
       H -2.45689e+00  1.11310e+01 -1.35006e+01
       O -3.95757e+00  2.16435e+00 -7.82368e-01
       H -3.95607e+00  3.67109e-01 -2.29207e-01
       H -4.14756e+00  2.15166e+00 -2.59983e+00
       O -8.20667e+00  9.52420e+00 -7.81868e-01
       H -8.20527e+00  7.72699e+00 -2.28645e-01
       H -8.39652e+00  9.51128e+00 -2.59932e+00
       O -4.52494e+00  2.58246e+00 -6.25501e+00
       H -6.04100e+00  3.58821e+00 -6.58223e+00
       H -3.05758e+00  3.61139e+00 -6.71360e+00
       O  8.22236e+00  9.94146e+00 -6.25587e+00
       H  6.70631e+00  1.09474e+01 -6.58279e+00
       H -7.30653e+00  1.09705e+01 -6.71435e+00
       O  8.20665e+00  5.19438e+00 -7.70097e+00
       H  8.39659e+00  5.20693e+00 -9.51844e+00
       H  8.20533e+00  6.99167e+00 -7.14797e+00
       O -4.54026e+00  1.25545e+01 -7.70081e+00
       H -4.34992e+00  1.25674e+01 -9.51823e+00
       H -4.54169e+00  1.43517e+01 -7.14749e+00
       O -8.22210e+00  4.77691e+00  6.62996e-01
       H  7.30665e+00  3.74808e+00  2.04431e-01
       H -6.70613e+00  3.77091e+00  3.36028e-01
       O -3.97279e+00  1.21369e+01  6.63306e-01
       H -5.44019e+00  1.11079e+01  2.05006e-01
       H -2.45681e+00  1.11309e+01  3.36133e-01
       O -3.95757e+00  2.16479e+00  1.30545e+01
       H -3.95616e+00  3.67575e-01  1.36077e+01
       H -4.14769e+00  2.15200e+00  1.12370e+01
       O -8.20659e+00  9.52434e+00  1.30546e+01
       H -8.20522e+00  7.72713e+00  1.36079e+01
       H -8.39644e+00  9.51145e+00  1.12371e+01
       O -4.52499e+00  2.58228e+00  7.58148e+00
       H -6.04100e+00  3.58814e+00  7.25437e+00
       H -3.05766e+00  3.61126e+00  7.12297e+00
       O  8.22229e+00  9.94203e+00  7.58108e+00
       H  6.70627e+00  1.09480e+01  7.25419e+00
       H -7.30655e+00  1.09710e+01  7.12260e+00
       O  8.20668e+00  5.19493e+00  6.13567e+00
       H  8.39670e+00  5.20749e+00  4.31823e+00
       H  8.20535e+00  6.99219e+00  6.68874e+00
       O -4.54018e+00  1.25546e+01  6.13603e+00
       H -4.34989e+00  1.25674e+01  4.31861e+00
       H -4.54161e+00  1.43518e+01  6.68925e+00
       O  2.75877e-01 -9.94198e+00 -1.31737e+01
       H -1.19147e+00 -1.09709e+01 -1.36323e+01
       H  1.79191e+00 -1.09478e+01 -1.35009e+01
       O  4.52479e+00 -2.58220e+00 -1.31736e+01
       H  3.05750e+00 -3.61120e+00 -1.36322e+01
       H  6.04084e+00 -3.58815e+00 -1.35003e+01
       O  4.54038e+00 -1.25538e+01 -7.82378e-01
       H  4.54166e+00 -1.43510e+01 -2.29173e-01
       H  4.35042e+00 -1.25666e+01 -2.59983e+00
       O  2.91382e-01 -5.19489e+00 -7.82498e-01
       H  2.92775e-01 -6.99208e+00 -2.29179e-01
       H  1.01240e-01 -5.20770e+00 -2.59994e+00
       O  3.97307e+00 -1.21369e+01 -6.25482e+00
       H  2.45707e+00 -1.11310e+01 -6.58187e+00
       H  5.44043e+00 -1.11080e+01 -6.71350e+00
       O -2.76167e-01 -4.77714e+00 -6.25484e+00
       H -1.79215e+00 -3.77120e+00 -6.58193e+00
       H  1.19122e+00 -3.74822e+00 -6.71327e+00
       O -2.91294e-01 -9.52406e+00 -7.70061e+00
       H -1.01153e-01 -9.51128e+00 -9.51804e+00
       H -2.92737e-01 -7.72684e+00 -7.14734e+00
       O  3.95740e+00 -2.16468e+00 -7.70029e+00
       H  4.14711e+00 -2.15178e+00 -9.51779e+00
       H  3.95613e+00 -3.67477e-01 -7.14700e+00
       O  2.75838e-01 -9.94166e+00  6.63265e-01
       H -1.19143e+00 -1.09706e+01  2.04532e-01
       H  1.79197e+00 -1.09474e+01  3.36068e-01
       O  4.52471e+00 -2.58218e+00  6.62891e-01
       H  3.05743e+00 -3.61117e+00  2.04240e-01
       H  6.04080e+00 -3.58806e+00  3.36089e-01
       O  4.54037e+00 -1.25543e+01  1.30539e+01
       H  4.54173e+00 -1.43516e+01  1.36070e+01
       H  4.35050e+00 -1.25670e+01  1.12364e+01
       O  2.91297e-01 -5.19502e+00  1.30541e+01
       H  2.92732e-01 -6.99225e+00  1.36074e+01
       H  1.01206e-01 -5.20786e+00  1.12367e+01
       O  3.97310e+00 -1.21368e+01  7.58177e+00
       H  2.45707e+00 -1.11309e+01  7.25464e+00
       H  5.44051e+00 -1.11080e+01  7.12302e+00
       O -2.76100e-01 -4.77767e+00  7.58136e+00
       H -1.79210e+00 -3.77177e+00  7.25428e+00
       H  1.19125e+00 -3.74871e+00  7.12290e+00
       O -2.91340e-01 -9.52458e+00  6.13593e+00
       H -1.01282e-01 -9.51181e+00  4.31852e+00
       H -2.92762e-01 -7.72734e+00  6.68916e+00
       O  3.95728e+00 -2.16475e+00  6.13602e+00
       H  4.14704e+00 -2.15175e+00  4.31853e+00
       H  3.95603e+00 -3.67615e-01  6.68942e+00
       O  2.75872e-01  4.77775e+00 -1.31735e+01
       H -1.19145e+00  3.74868e+00 -1.36320e+01
       H  1.79192e+00  3.77189e+00 -1.35005e+01
       O  4.52473e+00  1.21369e+01 -1.31737e+01
       H  3.05744e+00  1.11080e+01 -1.36325e+01
       H  6.04082e+00  1.11311e+01 -1.35004e+01
       O  4.54033e+00  2.16480e+00 -7.82502e-01
       H  4.54166e+00  3.67553e-01 -2.29384e-01
       H  4.35052e+00  2.15214e+00 -2.60000e+00
       O  2.91442e-01  9.52423e+00 -7.82681e-01
       H  2.92837e-01  7.72701e+00 -2.29452e-01
       H  1.01299e-01  9.51146e+00 -2.60013e+00
       O  3.97319e+00  2.58230e+00 -6.25496e+00
       H  2.45717e+00  3.58819e+00 -6.58198e+00
       H  5.44056e+00  3.61109e+00 -6.71379e+00
       O -2.76125e-01  9.94167e+00 -6.25515e+00
       H -1.79212e+00  1.09476e+01 -6.58222e+00
       H  1.19126e+00  1.09706e+01 -6.71377e+00
       O -2.91369e-01  5.19475e+00 -7.70046e+00
       H -1.01380e-01  5.20765e+00 -9.51793e+00
       H -2.92793e-01  6.99195e+00 -7.14718e+00
       O  3.95737e+00  1.25543e+01 -7.70076e+00
       H  4.14703e+00  1.25673e+01 -9.51824e+00
       H  3.95606e+00  1.43514e+01 -7.14726e+00
       O  2.75794e-01  4.77734e+00  6.62959e-01
       H -1.19152e+00  3.74832e+00  2.04499e-01
       H  1.79186e+00  3.77147e+00  3.35887e-01
       O  4.52464e+00  1.21373e+01  6.62988e-01
       H  3.05745e+00  1.11082e+01  2.04218e-01
       H  6.04076e+00  1.11314e+01  3.36450e-01
       O  4.54041e+00  2.16499e+00  1.30543e+01
       H  4.54178e+00  3.67749e-01  1.36074e+01
       H  4.35054e+00  2.15228e+00  1.12368e+01
       O  2.91308e-01  9.52457e+00  1.30538e+01
       H  2.92715e-01  7.72735e+00  1.36071e+01
       H  1.01225e-01  9.51181e+00  1.12363e+01
       O  3.97315e+00  2.58235e+00  7.58152e+00
       H  2.45713e+00  3.58829e+00  7.25455e+00
       H  5.44048e+00  3.61122e+00  7.12279e+00
       O -2.76008e-01  9.94202e+00  7.58171e+00
       H -1.79205e+00  1.09479e+01  7.25468e+00
       H  1.19134e+00  1.09710e+01  7.12317e+00
       O -2.91416e-01  5.19510e+00  6.13606e+00
       H -1.01371e-01  5.20795e+00  4.31863e+00
       H -2.92777e-01  6.99228e+00  6.68938e+00
       O  3.95729e+00  1.25546e+01  6.13612e+00
       H  4.14688e+00  1.25676e+01  4.31864e+00
       H  3.95603e+00  1.43518e+01  6.68952e+00
192
# CELL(abcABC):   16.99620    29.43815    27.67315    90.00000    90.00000    90.00000  Step:          10  Bead:      11 positions{atomic_unit}  cell{atomic_unit}
       O -8.20677e+00 -9.93767e+00 -1.31386e+01
       H  7.10880e+00 -1.07379e+01 -1.36040e+01
       H -6.82485e+00 -1.09449e+01 -1.36697e+01
       O -3.96667e+00 -2.56615e+00 -1.31322e+01
       H -5.42566e+00 -3.83880e+00 -1.34792e+01
       H -2.49975e+00 -3.63446e+00 -1.36333e+01
       O -4.02621e+00 -1.25344e+01 -7.70077e-01
       H -3.94716e+00 -1.43687e+01 -3.85367e-01
       H -4.28855e+00 -1.25206e+01 -2.61779e+00
       O -8.14584e+00 -5.15970e+00 -7.59141e-01
       H -7.89800e+00 -7.02340e+00 -2.85664e-01
       H -8.39157e+00 -5.16257e+00 -2.55608e+00
       O -4.43484e+00 -1.21696e+01 -6.29759e+00
       H -6.21321e+00 -1.10637e+01 -6.39291e+00
       H -2.95645e+00 -1.11291e+01 -6.81645e+00
       O  8.25061e+00 -4.80233e+00 -6.27817e+00
       H  6.79572e+00 -3.69914e+00 -6.51384e+00
       H -7.08727e+00 -3.75942e+00 -6.77722e+00
       O  8.18584e+00 -9.55214e+00 -7.69156e+00
       H  8.25557e+00 -9.45551e+00 -9.55483e+00
       H  8.22314e+00 -7.88805e+00 -7.00502e+00
       O -4.57041e+00 -2.13719e+00 -7.68368e+00
       H -4.18261e+00 -2.31672e+00 -9.53514e+00
       H -4.63704e+00 -1.83209e-01 -7.27435e+00
       O -8.26782e+00 -9.86563e+00  6.73058e-01
       H  7.16912e+00 -1.12924e+01  1.48960e-01
       H -6.71601e+00 -1.08070e+01  2.21852e-01
       O -3.99952e+00 -2.56116e+00  6.72538e-01
       H -5.44793e+00 -3.80275e+00  5.19634e-01
       H -2.52648e+00 -3.61013e+00  5.64733e-01
       O -4.01223e+00 -1.25438e+01  1.30289e+01
       H -4.09703e+00 -1.46133e+01  1.32554e+01
       H -4.09018e+00 -1.26607e+01  1.13676e+01
       O -8.17281e+00 -5.11570e+00  1.30003e+01
       H -8.22952e+00 -7.13909e+00  1.35867e+01
       H -8.14206e+00 -5.32323e+00  1.11429e+01
       O -4.46302e+00 -1.22260e+01  7.63322e+00
       H -6.18771e+00 -1.13065e+01  7.38462e+00
       H -2.93512e+00 -1.11239e+01  6.98524e+00
       O  8.23604e+00 -4.78169e+00  7.58380e+00
       H  6.63428e+00 -3.67417e+00  7.04523e+00
       H -7.25012e+00 -3.61781e+00  7.22410e+00
       O  8.17310e+00 -9.46850e+00  6.15849e+00
       H  8.09983e+00 -9.70144e+00  4.22449e+00
       H  8.10342e+00 -7.62773e+00  7.12833e+00
       O -4.59136e+00 -2.13306e+00  6.13780e+00
       H -4.38221e+00 -2.26434e+00  4.52552e+00
       H -4.58593e+00 -4.85446e-01  6.53679e+00
       O -8.17559e+00  4.79774e+00 -1.32565e+01
       H  7.30652e+00  3.66807e+00 -1.33970e+01
       H -6.66084e+00  4.02850e+00 -1.32533e+01
       O -3.94696e+00  1.21221e+01 -1.32407e+01
       H -5.43783e+00  1.14166e+01 -1.36774e+01
       H -2.35575e+00  1.10437e+01 -1.32186e+01
       O -3.95055e+00  2.16955e+00 -7.71120e-01
       H -3.95750e+00  4.59789e-01  3.38903e-03
       H -4.05284e+00  2.26215e+00 -2.52775e+00
       O -8.25334e+00  9.59241e+00 -7.96617e-01
       H -7.99402e+00  7.68565e+00 -3.45848e-01
       H -8.25568e+00  9.68066e+00 -2.77438e+00
       O -4.51165e+00  2.48415e+00 -6.22062e+00
       H -6.20964e+00  3.43348e+00 -6.44508e+00
       H -3.00905e+00  3.46145e+00 -6.78803e+00
       O  8.18702e+00  9.90902e+00 -6.20398e+00
       H  6.77497e+00  1.09262e+01 -6.32755e+00
       H -7.57236e+00  1.10487e+01 -6.53946e+00
       O  8.14665e+00  5.20972e+00 -7.71925e+00
       H  8.58293e+00  5.01648e+00 -9.30122e+00
       H  8.28280e+00  7.04025e+00 -7.28619e+00
       O -4.57079e+00  1.24953e+01 -7.77831e+00
       H -4.50777e+00  1.26518e+01 -9.58138e+00
       H -4.72132e+00  1.46513e+01 -7.48934e+00
       O -8.24445e+00  4.76215e+00  5.90657e-01
       H  7.46104e+00  3.81690e+00  1.88319e-01
       H -6.59853e+00  3.79955e+00  4.25086e-01
       O -3.92462e+00  1.20705e+01  6.06426e-01
       H -5.43789e+00  1.10944e+01  3.78707e-01
       H -2.60052e+00  1.11185e+01  4.95643e-01
       O -3.94252e+00  2.12710e+00  1.30198e+01
       H -3.90170e+00  1.85790e-01  1.34764e+01
       H -4.47832e+00  1.79944e+00  1.15054e+01
       O -8.17757e+00  9.50255e+00  1.30006e+01
       H -8.24438e+00  7.74341e+00  1.35621e+01
       H -8.51490e+00  9.36275e+00  1.13603e+01
       O -4.47378e+00  2.58909e+00  7.57920e+00
       H -5.99548e+00  3.49900e+00  7.25361e+00
       H -2.93166e+00  3.50067e+00  7.11419e+00
       O  8.30147e+00  9.88055e+00  7.56783e+00
       H  6.76642e+00  1.06851e+01  7.15643e+00
       H -7.08974e+00  1.10082e+01  6.97650e+00
       O  8.22144e+00  5.18116e+00  6.13224e+00
       H  8.22114e+00  5.38164e+00  4.17268e+00
       H  8.36711e+00  6.85888e+00  6.88209e+00
       O -4.54833e+00  1.25247e+01  6.13324e+00
       H -4.56486e+00  1.26845e+01  4.47554e+00
       H -4.24707e+00  1.45248e+01  6.90046e+00
       O  3.12952e-01 -9.84588e+00 -1.32294e+01
       H -1.04963e+00 -1.09804e+01 -1.36135e+01
       H  1.76622e+00 -1.11672e+01 -1.34625e+01
       O  4.52693e+00 -2.52868e+00 -1.31420e+01
       H  2.95666e+00 -3.62789e+00 -1.35590e+01
       H  5.93321e+00 -3.44144e+00 -1.33131e+01
       O  4.53490e+00 -1.26337e+01 -7.45758e-01
       H  4.52084e+00 -1.43482e+01 -1.60752e-01
       H  4.17591e+00 -1.23501e+01 -2.36138e+00
       O  3.00194e-01 -5.14089e+00 -7.17558e-01
       H  3.39320e-01 -6.99220e+00 -1.13096e-01
       H  2.09921e-01 -5.13572e+00 -2.67172e+00
       O  3.96139e+00 -1.21090e+01 -6.24009e+00
       H  2.33542e+00 -1.11030e+01 -6.83855e+00
       H  5.57472e+00 -1.09990e+01 -6.79614e+00
       O -2.34061e-01 -4.83332e+00 -6.29421e+00
       H -1.95299e+00 -3.94425e+00 -7.03143e+00
       H  1.07011e+00 -3.86342e+00 -6.54537e+00
       O -2.29119e-01 -9.61577e+00 -7.63494e+00
       H  9.76330e-02 -9.73607e+00 -9.66225e+00
       H -4.04422e-01 -7.69728e+00 -7.13619e+00
       O  3.96193e+00 -2.21584e+00 -7.71857e+00
       H  4.04189e+00 -2.43810e+00 -9.54186e+00
       H  4.18974e+00 -4.20368e-01 -7.10656e+00
       O  2.54206e-01 -1.00431e+01  7.33994e-01
       H -1.04474e+00 -1.10350e+01  7.30900e-02
       H  1.70826e+00 -1.08745e+01  2.26908e-01
       O  4.54380e+00 -2.64061e+00  6.49794e-01
       H  3.15502e+00 -3.64872e+00  5.94095e-01
       H  6.07165e+00 -3.67621e+00  4.35679e-01
       O  4.59440e+00 -1.24807e+01  1.30752e+01
       H  4.62224e+00 -1.45602e+01  1.37747e+01
       H  4.30830e+00 -1.26827e+01  1.13167e+01
       O  2.64455e-01 -5.17248e+00  1.30195e+01
       H  6.11776e-01 -6.77088e+00  1.36453e+01
       H -6.51107e-02 -5.30422e+00  1.10811e+01
       O  3.97515e+00 -1.22094e+01  7.55894e+00
       H  2.75034e+00 -1.10264e+01  7.49501e+00
       H  5.37738e+00 -1.12359e+01  7.04327e+00
       O -3.12153e-01 -4.73755e+00  7.60255e+00
       H -1.81433e+00 -3.74622e+00  7.48589e+00
       H  1.13039e+00 -3.83167e+00  7.14510e+00
       O -2.48457e-01 -9.53431e+00  6.13012e+00
       H -1.04942e-01 -9.12530e+00  4.28097e+00
       H -2.60916e-01 -7.76813e+00  6.78091e+00
       O  4.03435e+00 -2.19343e+00  6.11233e+00
       H  4.11313e+00 -1.74711e+00  4.43819e+00
       H  4.04269e+00 -1.62673e-01  6.77687e+00
       O  2.18644e-01  4.77509e+00 -1.32148e+01
       H -1.20281e+00  3.89113e+00 -1.37084e+01
       H  1.70857e+00  3.94471e+00 -1.36858e+01
       O  4.50982e+00  1.20860e+01 -1.31783e+01
       H  3.22307e+00  1.09709e+01 -1.34831e+01
       H  6.17362e+00  1.11988e+01 -1.38339e+01
       O  4.55019e+00  2.13425e+00 -7.95438e-01
       H  4.85613e+00  3.96106e-01 -3.33563e-02
       H  4.22857e+00  2.16268e+00 -2.52583e+00
       O  2.57695e-01  9.55176e+00 -7.09606e-01
       H  2.09089e-01  7.85937e+00 -3.57915e-02
       H  1.09557e-01  9.35898e+00 -2.48980e+00
       O  4.05197e+00  2.53175e+00 -6.24309e+00
       H  2.42534e+00  3.62378e+00 -6.36910e+00
       H  5.52300e+00  3.46510e+00 -6.74557e+00
       O -1.77346e-01  9.98318e+00 -6.31097e+00
       H -1.68027e+00  1.09291e+01 -6.75591e+00
       H  1.33013e+00  1.07868e+01 -6.77247e+00
       O -3.03822e-01  5.25233e+00 -7.71472e+00
       H -3.19348e-01  4.80660e+00 -9.46839e+00
       H  2.96759e-02  7.20608e+00 -7.18062e+00
       O  3.89762e+00  1.24637e+01 -7.63774e+00
       H  4.35353e+00  1.27076e+01 -9.61132e+00
       H  3.93411e+00  1.41384e+01 -7.03119e+00
       O  2.42294e-01  4.76406e+00  6.60048e-01
       H -1.11214e+00  3.35873e+00  8.21936e-02
       H  1.73742e+00  3.38586e+00  2.31534e-01
       O  4.50909e+00  1.22048e+01  6.15181e-01
       H  3.29972e+00  1.09589e+01  6.95338e-02
       H  6.13629e+00  1.13202e+01  2.61350e-01
       O  4.55478e+00  2.18783e+00  1.30751e+01
       H  4.45301e+00  3.29209e-01  1.36876e+01
       H  4.32482e+00  2.07582e+00  1.10880e+01
       O  2.76662e-01  9.59852e+00  1.30011e+01
       H  2.34373e-01  7.85424e+00  1.37451e+01
       H  3.22599e-01  9.60626e+00  1.11309e+01
       O  3.96965e+00  2.57107e+00  7.59836e+00
       H  2.47877e+00  3.69352e+00  7.20124e+00
       H  5.30271e+00  3.59586e+00  6.93877e+00
       O -2.89476e-01  9.88351e+00  7.55501e+00
       H -1.79869e+00  1.09622e+01  7.56341e+00
       H  1.20072e+00  1.08705e+01  6.86836e+00
       O -3.61661e-01  5.21488e+00  6.08222e+00
       H -3.95930e-01  5.20747e+00  4.35252e+00
       H -2.08295e-01  7.08705e+00  6.55773e+00
       O  4.03529e+00  1.25524e+01  6.14814e+00
       H  4.15793e+00  1.26375e+01  4.57246e+00
       H  3.82375e+00  1.43859e+01  6.78111e+00
192
# CELL(abcABC):   16.99620    29.43815    27.67315    90.00000    90.00000    90.00000  Step:          20  Bead:      11 positions{atomic_unit}  cell{atomic_unit}
       O -8.21045e+00 -9.95401e+00 -1.31196e+01
       H  7.10132e+00 -1.06870e+01 -1.36864e+01
       H -6.95662e+00 -1.07961e+01 -1.40289e+01
       O -3.98113e+00 -2.57250e+00 -1.31240e+01
       H -5.66267e+00 -3.74956e+00 -1.32355e+01
       H -2.54849e+00 -3.62523e+00 -1.38552e+01
       O -3.96134e+00 -1.25325e+01 -8.18830e-01
       H -3.79429e+00 -1.43882e+01 -4.81278e-01
       H -4.27648e+00 -1.27127e+01 -2.72153e+00
       O -8.21443e+00 -5.10221e+00 -7.42986e-01
       H -8.11557e+00 -7.13470e+00 -4.01923e-01
       H -8.82558e+00 -5.06520e+00 -2.56238e+00
       O -4.44206e+00 -1.21883e+01 -6.28384e+00
       H -6.00987e+00 -1.11700e+01 -6.44152e+00
       H -2.94072e+00 -1.14924e+01 -6.77783e+00
       O  8.27657e+00 -4.82743e+00 -6.37507e+00
       H  6.65793e+00 -3.74967e+00 -6.75825e+00
       H -6.91867e+00 -3.73126e+00 -6.91895e+00
       O  8.19405e+00 -9.57510e+00 -7.59700e+00
       H  8.25362e+00 -9.58516e+00 -9.63563e+00
       H  8.16537e+00 -7.67830e+00 -7.05652e+00
       O -4.57584e+00 -2.10617e+00 -7.68461e+00
       H -4.14598e+00 -2.24982e+00 -9.52838e+00
       H -4.65184e+00 -3.08108e-01 -7.29972e+00
       O -8.22588e+00 -9.85838e+00  7.05308e-01
       H  7.29457e+00 -1.11585e+01  6.89930e-02
       H -6.82266e+00 -1.05573e+01  1.07106e-01
       O -3.95198e+00 -2.55995e+00  6.40402e-01
       H -5.35271e+00 -3.67601e+00  3.82428e-01
       H -2.46907e+00 -3.70841e+00  4.39211e-01
       O -3.98728e+00 -1.25388e+01  1.30043e+01
       H -4.12806e+00 -1.47714e+01  1.33581e+01
       H -3.98169e+00 -1.26185e+01  1.12312e+01
       O -8.17023e+00 -5.13925e+00  1.29645e+01
       H -8.16239e+00 -6.95673e+00  1.35545e+01
       H -8.09796e+00 -5.38978e+00  1.11751e+01
       O -4.44187e+00 -1.21330e+01  7.58643e+00
       H -6.09221e+00 -1.13214e+01  7.35154e+00
       H -2.94171e+00 -1.11782e+01  7.21211e+00
       O  8.20350e+00 -4.69332e+00  7.56428e+00
       H  6.54379e+00 -3.54894e+00  7.28080e+00
       H -7.16335e+00 -3.76909e+00  7.32280e+00
       O  8.11892e+00 -9.51602e+00  6.15599e+00
       H  8.06883e+00 -9.78788e+00  4.38749e+00
       H  7.94950e+00 -7.88998e+00  6.86511e+00
       O -4.65485e+00 -2.11610e+00  6.18480e+00
       H -4.34724e+00 -2.31672e+00  4.18855e+00
       H -4.37884e+00 -2.46804e-01  6.79825e+00
       O -8.20113e+00  4.77180e+00 -1.32708e+01
       H  7.19904e+00  3.58291e+00 -1.33392e+01
       H -6.71344e+00  3.65455e+00 -1.34093e+01
       O -3.99005e+00  1.21338e+01 -1.32341e+01
       H -5.71651e+00  1.10262e+01 -1.38727e+01
       H -2.63908e+00  1.09390e+01 -1.32316e+01
       O -3.89530e+00  2.16443e+00 -8.07940e-01
       H -4.28923e+00  5.18260e-01  5.68736e-02
       H -4.11505e+00  2.08825e+00 -2.70770e+00
       O -8.22946e+00  9.54556e+00 -7.25746e-01
       H -8.25313e+00  7.53180e+00 -4.93178e-01
       H -8.34683e+00  9.71990e+00 -2.77993e+00
       O -4.43406e+00  2.51877e+00 -6.26387e+00
       H -6.37519e+00  3.38872e+00 -6.41066e+00
       H -2.88841e+00  3.52997e+00 -6.79650e+00
       O  8.18021e+00  9.96317e+00 -6.26359e+00
       H  6.51043e+00  1.10352e+01 -6.35605e+00
       H -7.19738e+00  1.09947e+01 -6.20684e+00
       O  8.09715e+00  5.23747e+00 -7.72315e+00
       H  8.40748e+00  5.03471e+00 -9.32587e+00
       H  8.19624e+00  7.12689e+00 -7.25045e+00
       O -4.61955e+00  1.24441e+01 -7.74501e+00
       H -4.62042e+00  1.23739e+01 -9.78810e+00
       H -4.99348e+00  1.46023e+01 -7.35404e+00
       O -8.24691e+00  4.82989e+00  6.08317e-01
       H  7.28261e+00  3.62736e+00  2.55626e-01
       H -6.40593e+00  3.54006e+00  5.99684e-01
       O -3.87968e+00  1.20624e+01  5.97271e-01
       H -5.46378e+00  1.09905e+01  4.32363e-01
       H -2.42052e+00  1.11043e+01  5.63656e-01
       O -3.95157e+00  2.17009e+00  1.29959e+01
       H -4.00060e+00  8.04241e-02  1.34449e+01
       H -4.53232e+00  1.80230e+00  1.11727e+01
       O -8.17699e+00  9.53516e+00  1.30406e+01
       H -8.14495e+00  7.91731e+00  1.36849e+01
       H -8.56606e+00  9.48258e+00  1.12854e+01
       O -4.48379e+00  2.57030e+00  7.69625e+00
       H -5.90594e+00  3.54132e+00  7.08542e+00
       H -2.78406e+00  3.76601e+00  6.95428e+00
       O  8.31745e+00  9.89477e+00  7.60252e+00
       H  6.72693e+00  1.09836e+01  7.21553e+00
       H -7.19533e+00  1.12662e+01  7.07594e+00
       O  8.20783e+00  5.13175e+00  6.06534e+00
       H  8.51064e+00  5.61280e+00  4.34244e+00
       H  8.36356e+00  6.91731e+00  6.87714e+00
       O -4.55468e+00  1.24962e+01  6.12113e+00
       H -4.67051e+00  1.28673e+01  4.40491e+00
       H -4.34932e+00  1.45199e+01  6.99285e+00
       O  3.14622e-01 -9.90976e+00 -1.32096e+01
       H -1.13705e+00 -1.10900e+01 -1.32133e+01
       H  1.85893e+00 -1.12758e+01 -1.34309e+01
       O  4.50288e+00 -2.49492e+00 -1.31179e+01
       H  2.87879e+00 -3.70842e+00 -1.32758e+01
       H  5.99951e+00 -3.42597e+00 -1.32280e+01
       O  4.63592e+00 -1.26074e+01 -7.45178e-01
       H  4.52004e+00 -1.42670e+01  5.96226e-02
       H  4.04221e+00 -1.21966e+01 -2.50861e+00
       O  2.29684e-01 -5.08420e+00 -6.98607e-01
       H  5.04455e-01 -6.85153e+00 -8.52429e-02
       H  1.34617e-01 -5.15393e+00 -2.48582e+00
       O  3.98755e+00 -1.20202e+01 -6.18138e+00
       H  2.41301e+00 -1.10874e+01 -6.78629e+00
       H  5.39327e+00 -1.11674e+01 -7.03818e+00
       O -3.13372e-01 -4.88743e+00 -6.31268e+00
       H -2.06911e+00 -4.06019e+00 -6.98628e+00
       H  1.27381e+00 -4.05163e+00 -6.95162e+00
       O -2.62731e-01 -9.72729e+00 -7.62980e+00
       H -1.47934e-01 -9.97041e+00 -9.51227e+00
       H -1.81018e-01 -7.68439e+00 -6.94476e+00
       O  4.00479e+00 -2.18296e+00 -7.67513e+00
       H  4.21850e+00 -2.41470e+00 -9.56775e+00
       H  4.07295e+00 -4.07079e-01 -6.99422e+00
       O  2.22097e-01 -1.00575e+01  7.73228e-01
       H -1.19259e+00 -1.10097e+01 -4.47675e-02
       H  2.08405e+00 -1.10316e+01  2.63400e-01
       O  4.62224e+00 -2.64404e+00  6.52859e-01
       H  2.95714e+00 -3.72459e+00  6.87113e-01
       H  5.99158e+00 -3.85413e+00  3.84862e-01
       O  4.59191e+00 -1.24003e+01  1.31737e+01
       H  4.57954e+00 -1.46379e+01  1.36635e+01
       H  3.98029e+00 -1.25792e+01  1.13899e+01
       O  3.56093e-01 -5.18558e+00  1.29716e+01
       H  4.72944e-01 -6.92952e+00  1.36179e+01
       H -1.38183e-01 -5.49300e+00  1.12642e+01
       O  3.98709e+00 -1.21700e+01  7.54020e+00
       H  2.52349e+00 -1.09215e+01  7.64226e+00
       H  5.65229e+00 -1.10500e+01  7.06913e+00
       O -2.75631e-01 -4.78687e+00  7.61600e+00
       H -1.60040e+00 -3.93212e+00  7.46924e+00
       H  1.33842e+00 -3.72011e+00  7.22807e+00
       O -2.64428e-01 -9.51830e+00  6.09866e+00
       H -4.55614e-01 -9.00308e+00  4.40409e+00
       H -3.96220e-01 -7.84610e+00  6.59912e+00
       O  4.01531e+00 -2.27917e+00  6.10296e+00
       H  4.19820e+00 -1.73620e+00  4.38612e+00
       H  4.26869e+00  1.92319e-01  6.79912e+00
       O  2.58758e-01  4.81521e+00 -1.31822e+01
       H -1.12834e+00  3.86324e+00 -1.38110e+01
       H  1.87223e+00  3.75328e+00 -1.38261e+01
       O  4.46374e+00  1.20494e+01 -1.31660e+01
       H  3.16460e+00  1.07452e+01 -1.36598e+01
       H  6.23274e+00  1.12915e+01 -1.35669e+01
       O  4.45883e+00  2.22857e+00 -8.20848e-01
       H  4.75432e+00  4.35418e-01  3.06591e-01
       H  4.09656e+00  2.13254e+00 -2.66860e+00
       O  2.20147e-01  9.60357e+00 -6.61677e-01
       H  2.41166e-01  7.79949e+00  5.13395e-02
       H  1.18469e-01  9.26986e+00 -2.39777e+00
       O  4.05380e+00  2.49985e+00 -6.19739e+00
       H  2.57187e+00  3.59304e+00 -6.23506e+00
       H  5.66510e+00  3.48543e+00 -6.43556e+00
       O -1.63616e-01  9.94682e+00 -6.23450e+00
       H -1.80225e+00  1.09527e+01 -6.66414e+00
       H  1.17624e+00  1.08001e+01 -6.81625e+00
       O -3.08351e-01  5.24595e+00 -7.65629e+00
       H -7.32733e-02  4.91574e+00 -9.51131e+00
       H  1.04279e-01  7.18543e+00 -7.32672e+00
       O  3.81976e+00  1.25303e+01 -7.64592e+00
       H  4.30929e+00  1.28288e+01 -9.53098e+00
       H  3.99703e+00  1.43242e+01 -7.04613e+00
       O  2.65106e-01  4.71949e+00  5.80345e-01
       H -1.15169e+00  3.58276e+00  1.44393e-01
       H  1.62237e+00  3.44211e+00  2.58667e-01
       O  4.45983e+00  1.22004e+01  5.88094e-01
       H  2.94469e+00  1.09459e+01  8.49056e-02
       H  6.29054e+00  1.14027e+01  3.01254e-01
       O  4.47485e+00  2.22879e+00  1.30643e+01
       H  4.43643e+00  5.68578e-01  1.36444e+01
       H  4.35631e+00  1.95442e+00  1.12947e+01
       O  2.67818e-01  9.52175e+00  1.29022e+01
       H  4.76036e-01  7.81075e+00  1.40186e+01
       H  7.07302e-02  9.46081e+00  1.09114e+01
       O  3.98986e+00  2.52593e+00  7.63100e+00
       H  2.24025e+00  3.22482e+00  6.83114e+00
       H  5.32279e+00  3.53361e+00  7.02170e+00
       O -3.14297e-01  9.79477e+00  7.61698e+00
       H -1.95683e+00  1.07971e+01  7.47995e+00
       H  1.04741e+00  1.09688e+01  7.06815e+00
       O -3.55688e-01  5.14877e+00  6.13434e+00
       H -8.26443e-01  5.47742e+00  4.36916e+00
       H -7.83102e-02  6.92143e+00  6.91100e+00
       O  4.05531e+00  1.25411e+01  6.17282e+00
       H  3.73444e+00  1.24497e+01  4.28831e+00
       H  3.81127e+00  1.45061e+01  6.82262e+00
192
# CELL(abcABC):   16.99620    29.43815    27.67315    90.00000    90.00000    90.00000  Step:          30  Bead:      11 positions{atomic_unit}  cell{atomic_unit}
       O -8.15924e+00 -9.96555e+00 -1.30654e+01
       H  7.25451e+00 -1.05493e+01 -1.37786e+01
       H -6.78571e+00 -1.11240e+01 -1.40187e+01
       O -3.98105e+00 -2.60758e+00 -1.31739e+01
       H -5.33099e+00 -3.84049e+00 -1.32955e+01
       H -2.61513e+00 -3.64004e+00 -1.38103e+01
       O -4.00037e+00 -1.24893e+01 -7.75145e-01
       H -3.81327e+00 -1.41222e+01 -3.60122e-01
       H -4.29016e+00 -1.25023e+01 -2.42227e+00
       O -8.25972e+00 -5.14720e+00 -7.54670e-01
       H -8.08799e+00 -7.09040e+00 -3.49525e-01
       H -8.91060e+00 -4.82621e+00 -2.50911e+00
       O -4.42321e+00 -1.22095e+01 -6.23612e+00
       H -5.79536e+00 -1.12382e+01 -6.64238e+00
       H -2.80448e+00 -1.15005e+01 -6.70736e+00
       O  8.33881e+00 -4.77867e+00 -6.41347e+00
       H  6.80830e+00 -3.58223e+00 -6.66966e+00
       H -7.02349e+00 -3.96386e+00 -6.78328e+00
       O  8.24544e+00 -9.55208e+00 -7.58314e+00
       H  8.52291e+00 -9.50723e+00 -9.41800e+00
       H  8.24933e+00 -7.47470e+00 -6.90283e+00
       O -4.58057e+00 -2.09420e+00 -7.74928e+00
       H -4.01601e+00 -2.14194e+00 -9.53569e+00
       H -4.92945e+00 -1.53777e-01 -7.15527e+00
       O -8.27361e+00 -9.79454e+00  6.83778e-01
       H  7.48762e+00 -1.10538e+01  4.81874e-03
       H -6.76833e+00 -1.09289e+01  1.97864e-01
       O -3.90079e+00 -2.60192e+00  7.13979e-01
       H -5.51537e+00 -3.37001e+00  3.39402e-01
       H -2.29239e+00 -3.97369e+00  3.79664e-01
       O -3.98291e+00 -1.25294e+01  1.30018e+01
       H -4.07224e+00 -1.43429e+01  1.32744e+01
       H -4.17175e+00 -1.24790e+01  1.12015e+01
       O -8.17167e+00 -5.09798e+00  1.30205e+01
       H -8.02951e+00 -6.82202e+00  1.34661e+01