192
# CELL(abcABC):   16.99620    29.43815    27.67315    90.00000    90.00000    90.00000  Step:           0  Bead:      10 positions{atomic_unit}  cell{atomic_unit}
       O -8.22215e+00 -9.94239e+00 -1.31733e+01
       H  7.30664e+00 -1.09711e+01 -1.36322e+01
       H -6.70615e+00 -1.09482e+01 -1.35006e+01
       O -3.97298e+00 -2.58228e+00 -1.31734e+01
       H -5.44033e+00 -3.61131e+00 -1.36317e+01
       H -2.45697e+00 -3.58820e+00 -1.35005e+01
       O -3.95756e+00 -1.25543e+01 -7.82386e-01
       H -3.95604e+00 -1.43515e+01 -2.29143e-01
       H -4.14759e+00 -1.25671e+01 -2.59983e+00
       O -8.20667e+00 -5.19495e+00 -7.82227e-01
       H -8.20527e+00 -6.99211e+00 -2.28860e-01
       H -8.39642e+00 -5.20788e+00 -2.59970e+00
       O -4.52495e+00 -1.21366e+01 -6.25523e+00
       H -6.04104e+00 -1.11308e+01 -6.58223e+00
       H -3.05766e+00 -1.11077e+01 -6.71383e+00
       O  8.22247e+00 -4.77716e+00 -6.25561e+00
       H  6.70639e+00 -3.77128e+00 -6.58235e+00
       H -7.30644e+00 -3.74813e+00 -6.71411e+00
       O  8.20650e+00 -9.52435e+00 -7.70064e+00
       H  8.39647e+00 -9.51190e+00 -9.51809e+00
       H  8.20529e+00 -7.72704e+00 -7.14768e+00
       O -4.54027e+00 -2.16431e+00 -7.70075e+00
       H -4.35006e+00 -2.15153e+00 -9.51816e+00
       H -4.54166e+00 -3.67089e-01 -7.14744e+00
       O -8.22211e+00 -9.94193e+00  6.63469e-01
       H  7.30672e+00 -1.09707e+01  2.04633e-01
       H -6.70609e+00 -1.09478e+01  3.36365e-01
       O -3.97290e+00 -2.58257e+00  6.63081e-01
       H -5.44032e+00 -3.61148e+00  2.04655e-01
       H -2.45688e+00 -3.58848e+00  3.35971e-01
       O -3.95760e+00 -1.25545e+01  1.30538e+01
       H -3.95614e+00 -1.43517e+01  1.36071e+01
       H -4.14757e+00 -1.25673e+01  1.12363e+01
       O -8.20656e+00 -5.19529e+00  1.30545e+01
       H -8.20517e+00 -6.99250e+00  1.36078e+01
       H -8.39634e+00 -5.20824e+00  1.12370e+01
       O -4.52490e+00 -1.21367e+01  7.58138e+00
       H -6.04102e+00 -1.11309e+01  7.25435e+00
       H -3.05757e+00 -1.11078e+01  7.12272e+00
       O  8.22232e+00 -4.77760e+00  7.58065e+00
       H  6.70627e+00 -3.77169e+00  7.25392e+00
       H -7.30657e+00 -3.74862e+00  7.12211e+00
       O  8.20656e+00 -9.52478e+00  6.13597e+00
       H  8.39651e+00 -9.51229e+00  4.31849e+00
       H  8.20527e+00 -7.72747e+00  6.68889e+00
       O -4.54025e+00 -2.16471e+00  6.13560e+00
       H -4.34999e+00 -2.15183e+00  4.31818e+00
       H -4.54168e+00 -3.67533e-01  6.68897e+00
       O -8.22212e+00  4.77724e+00 -1.31733e+01
       H  7.30671e+00  3.74833e+00 -1.36320e+01
       H -6.70607e+00  3.77135e+00 -1.35002e+01
       O -3.97288e+00  1.21369e+01 -1.31734e+01
       H -5.44030e+00  1.11079e+01 -1.36317e+01
       H -2.45689e+00  1.11310e+01 -1.35006e+01
       O -3.95757e+00  2.16435e+00 -7.82368e-01
       H -3.95607e+00  3.67109e-01 -2.29207e-01
       H -4.14756e+00  2.15166e+00 -2.59983e+00
       O -8.20667e+00  9.52420e+00 -7.81868e-01
       H -8.20527e+00  7.72699e+00 -2.28645e-01
       H -8.39652e+00  9.51128e+00 -2.59932e+00
       O -4.52494e+00  2.58246e+00 -6.25501e+00
       H -6.04100e+00  3.58821e+00 -6.58223e+00
       H -3.05758e+00  3.61139e+00 -6.71360e+00
       O  8.22236e+00  9.94146e+00 -6.25587e+00
       H  6.70631e+00  1.09474e+01 -6.58279e+00
       H -7.30653e+00  1.09705e+01 -6.71435e+00
       O  8.20665e+00  5.19438e+00 -7.70097e+00
       H  8.39659e+00  5.20693e+00 -9.51844e+00
       H  8.20533e+00  6.99167e+00 -7.14797e+00
       O -4.54026e+00  1.25545e+01 -7.70081e+00
       H -4.34992e+00  1.25674e+01 -9.51823e+00
       H -4.54169e+00  1.43517e+01 -7.14749e+00
       O -8.22210e+00  4.77691e+00  6.62996e-01
       H  7.30665e+00  3.74808e+00  2.04431e-01
       H -6.70613e+00  3.77091e+00  3.36028e-01
       O -3.97279e+00  1.21369e+01  6.63306e-01
       H -5.44019e+00  1.11079e+01  2.05006e-01
       H -2.45681e+00  1.11309e+01  3.36133e-01
       O -3.95757e+00  2.16479e+00  1.30545e+01
       H -3.95616e+00  3.67575e-01  1.36077e+01
       H -4.14769e+00  2.15200e+00  1.12370e+01
       O -8.20659e+00  9.52434e+00  1.30546e+01
       H -8.20522e+00  7.72713e+00  1.36079e+01
       H -8.39644e+00  9.51145e+00  1.12371e+01
       O -4.52499e+00  2.58228e+00  7.58148e+00
       H -6.04100e+00  3.58814e+00  7.25437e+00
       H -3.05766e+00  3.61126e+00  7.12297e+00
       O  8.22229e+00  9.94203e+00  7.58108e+00
       H  6.70627e+00  1.09480e+01  7.25419e+00
       H -7.30655e+00  1.09710e+01  7.12260e+00
       O  8.20668e+00  5.19493e+00  6.13567e+00
       H  8.39670e+00  5.20749e+00  4.31823e+00
       H  8.20535e+00  6.99219e+00  6.68874e+00
       O -4.54018e+00  1.25546e+01  6.13603e+00
       H -4.34989e+00  1.25674e+01  4.31861e+00
       H -4.54161e+00  1.43518e+01  6.68925e+00
       O  2.75877e-01 -9.94198e+00 -1.31737e+01
       H -1.19147e+00 -1.09709e+01 -1.36323e+01
       H  1.79191e+00 -1.09478e+01 -1.35009e+01
       O  4.52479e+00 -2.58220e+00 -1.31736e+01
       H  3.05750e+00 -3.61120e+00 -1.36322e+01
       H  6.04084e+00 -3.58815e+00 -1.35003e+01
       O  4.54038e+00 -1.25538e+01 -7.82378e-01
       H  4.54166e+00 -1.43510e+01 -2.29173e-01
       H  4.35042e+00 -1.25666e+01 -2.59983e+00
       O  2.91382e-01 -5.19489e+00 -7.82498e-01
       H  2.92775e-01 -6.99208e+00 -2.29179e-01
       H  1.01240e-01 -5.20770e+00 -2.59994e+00
       O  3.97307e+00 -1.21369e+01 -6.25482e+00
       H  2.45707e+00 -1.11310e+01 -6.58187e+00
       H  5.44043e+00 -1.11080e+01 -6.71350e+00
       O -2.76167e-01 -4.77714e+00 -6.25484e+00
       H -1.79215e+00 -3.77120e+00 -6.58193e+00
       H  1.19122e+00 -3.74822e+00 -6.71327e+00
       O -2.91294e-01 -9.52406e+00 -7.70061e+00
       H -1.01153e-01 -9.51128e+00 -9.51804e+00
       H -2.92737e-01 -7.72684e+00 -7.14734e+00
       O  3.95740e+00 -2.16468e+00 -7.70029e+00
       H  4.14711e+00 -2.15178e+00 -9.51779e+00
       H  3.95613e+00 -3.67477e-01 -7.14700e+00
       O  2.75838e-01 -9.94166e+00  6.63265e-01
       H -1.19143e+00 -1.09706e+01  2.04532e-01
       H  1.79197e+00 -1.09474e+01  3.36068e-01
       O  4.52471e+00 -2.58218e+00  6.62891e-01
       H  3.05743e+00 -3.61117e+00  2.04240e-01
       H  6.04080e+00 -3.58806e+00  3.36089e-01
       O  4.54037e+00 -1.25543e+01  1.30539e+01
       H  4.54173e+00 -1.43516e+01  1.36070e+01
       H  4.35050e+00 -1.25670e+01  1.12364e+01
       O  2.91297e-01 -5.19502e+00  1.30541e+01
       H  2.92732e-01 -6.99225e+00  1.36074e+01
       H  1.01206e-01 -5.20786e+00  1.12367e+01
       O  3.97310e+00 -1.21368e+01  7.58177e+00
       H  2.45707e+00 -1.11309e+01  7.25464e+00
       H  5.44051e+00 -1.11080e+01  7.12302e+00
       O -2.76100e-01 -4.77767e+00  7.58136e+00
       H -1.79210e+00 -3.77177e+00  7.25428e+00
       H  1.19125e+00 -3.74871e+00  7.12290e+00
       O -2.91340e-01 -9.52458e+00  6.13593e+00
       H -1.01282e-01 -9.51181e+00  4.31852e+00
       H -2.92762e-01 -7.72734e+00  6.68916e+00
       O  3.95728e+00 -2.16475e+00  6.13602e+00
       H  4.14704e+00 -2.15175e+00  4.31853e+00
       H  3.95603e+00 -3.67615e-01  6.68942e+00
       O  2.75872e-01  4.77775e+00 -1.31735e+01
       H -1.19145e+00  3.74868e+00 -1.36320e+01
       H  1.79192e+00  3.77189e+00 -1.35005e+01
       O  4.52473e+00  1.21369e+01 -1.31737e+01
       H  3.05744e+00  1.11080e+01 -1.36325e+01
       H  6.04082e+00  1.11311e+01 -1.35004e+01
       O  4.54033e+00  2.16480e+00 -7.82502e-01
       H  4.54166e+00  3.67553e-01 -2.29384e-01
       H  4.35052e+00  2.15214e+00 -2.60000e+00
       O  2.91442e-01  9.52423e+00 -7.82681e-01
       H  2.92837e-01  7.72701e+00 -2.29452e-01
       H  1.01299e-01  9.51146e+00 -2.60013e+00
       O  3.97319e+00  2.58230e+00 -6.25496e+00
       H  2.45717e+00  3.58819e+00 -6.58198e+00
       H  5.44056e+00  3.61109e+00 -6.71379e+00
       O -2.76125e-01  9.94167e+00 -6.25515e+00
       H -1.79212e+00  1.09476e+01 -6.58222e+00
       H  1.19126e+00  1.09706e+01 -6.71377e+00
       O -2.91369e-01  5.19475e+00 -7.70046e+00
       H -1.01380e-01  5.20765e+00 -9.51793e+00
       H -2.92793e-01  6.99195e+00 -7.14718e+00
       O  3.95737e+00  1.25543e+01 -7.70076e+00
       H  4.14703e+00  1.25673e+01 -9.51824e+00
       H  3.95606e+00  1.43514e+01 -7.14726e+00
       O  2.75794e-01  4.77734e+00  6.62959e-01
       H -1.19152e+00  3.74832e+00  2.04499e-01
       H  1.79186e+00  3.77147e+00  3.35887e-01
       O  4.52464e+00  1.21373e+01  6.62988e-01
       H  3.05745e+00  1.11082e+01  2.04218e-01
       H  6.04076e+00  1.11314e+01  3.36450e-01
       O  4.54041e+00  2.16499e+00  1.30543e+01
       H  4.54178e+00  3.67749e-01  1.36074e+01
       H  4.35054e+00  2.15228e+00  1.12368e+01
       O  2.91308e-01  9.52457e+00  1.30538e+01
       H  2.92715e-01  7.72735e+00  1.36071e+01
       H  1.01225e-01  9.51181e+00  1.12363e+01
       O  3.97315e+00  2.58235e+00  7.58152e+00
       H  2.45713e+00  3.58829e+00  7.25455e+00
       H  5.44048e+00  3.61122e+00  7.12279e+00
       O -2.76008e-01  9.94202e+00  7.58171e+00
       H -1.79205e+00  1.09479e+01  7.25468e+00
       H  1.19134e+00  1.09710e+01  7.12317e+00
       O -2.91416e-01  5.19510e+00  6.13606e+00
       H -1.01371e-01  5.20795e+00  4.31863e+00
       H -2.92777e-01  6.99228e+00  6.68938e+00
       O  3.95729e+00  1.25546e+01  6.13612e+00
       H  4.14688e+00  1.25676e+01  4.31864e+00
       H  3.95603e+00  1.43518e+01  6.68952e+00
192
# CELL(abcABC):   16.99620    29.43815    27.67315    90.00000    90.00000    90.00000  Step:          10  Bead:      10 positions{atomic_unit}  cell{atomic_unit}
       O -8.18707e+00 -9.95678e+00 -1.31182e+01
       H  7.23241e+00 -1.08600e+01 -1.36108e+01
       H -6.88383e+00 -1.08996e+01 -1.37978e+01
       O -3.98368e+00 -2.53625e+00 -1.31063e+01
       H -5.61971e+00 -3.86250e+00 -1.36886e+01
       H -2.47191e+00 -3.56870e+00 -1.36481e+01
       O -4.00004e+00 -1.25862e+01 -8.06508e-01
       H -3.70156e+00 -1.44039e+01 -2.53641e-01
       H -4.31115e+00 -1.23427e+01 -2.60753e+00
       O -8.17502e+00 -5.13401e+00 -7.66557e-01
       H -7.99337e+00 -7.19976e+00 -4.70866e-01
       H -8.52552e+00 -5.24240e+00 -2.60132e+00
       O -4.52379e+00 -1.21535e+01 -6.28993e+00
       H -6.22330e+00 -1.11565e+01 -6.35437e+00
       H -3.03194e+00 -1.11451e+01 -6.76022e+00
       O  8.33718e+00 -4.78627e+00 -6.28879e+00
       H  6.94224e+00 -3.99650e+00 -6.79367e+00
       H -7.19127e+00 -3.55833e+00 -6.72168e+00
       O  8.19639e+00 -9.49929e+00 -7.69183e+00
       H  8.35014e+00 -9.58299e+00 -9.68603e+00
       H  8.23905e+00 -7.86866e+00 -6.94370e+00
       O -4.58162e+00 -2.20401e+00 -7.65395e+00
       H -4.24413e+00 -2.20992e+00 -9.86417e+00
       H -4.63690e+00 -2.64017e-01 -7.32807e+00
       O -8.30691e+00 -9.85670e+00  6.85896e-01
       H  7.22088e+00 -1.11662e+01 -7.17355e-02
       H -6.72673e+00 -1.08423e+01  2.20337e-01
       O -3.98923e+00 -2.54365e+00  7.22119e-01
       H -5.42891e+00 -3.72282e+00  5.34226e-01
       H -2.61822e+00 -3.54133e+00  5.32543e-01
       O -4.04467e+00 -1.25412e+01  1.30358e+01
       H -3.99028e+00 -1.43385e+01  1.33284e+01
       H -4.03633e+00 -1.24902e+01  1.11887e+01
       O -8.21268e+00 -5.16913e+00  1.30184e+01
       H -8.07364e+00 -7.07051e+00  1.35840e+01
       H -8.31465e+00 -5.23660e+00  1.12983e+01
       O -4.54292e+00 -1.21722e+01  7.64766e+00
       H -6.05559e+00 -1.11854e+01  7.38014e+00
       H -2.98863e+00 -1.11686e+01  7.15991e+00
       O  8.24140e+00 -4.71600e+00  7.54764e+00
       H  6.55884e+00 -3.57744e+00  7.19044e+00
       H -7.45399e+00 -3.83445e+00  7.19597e+00
       O  8.15373e+00 -9.46568e+00  6.14182e+00
       H  8.32606e+00 -9.87660e+00  4.35342e+00
       H  8.16153e+00 -7.63212e+00  6.83260e+00
       O -4.59656e+00 -2.11761e+00  6.11028e+00
       H -4.58481e+00 -2.07037e+00  4.29117e+00
       H -4.41130e+00 -4.89239e-01  6.76684e+00
       O -8.21217e+00  4.77614e+00 -1.32728e+01
       H  7.28566e+00  3.75496e+00 -1.35938e+01
       H -6.66062e+00  3.97440e+00 -1.34544e+01
       O -3.97648e+00  1.22111e+01 -1.32070e+01
       H -5.31098e+00  1.14388e+01 -1.38359e+01
       H -2.37194e+00  1.10849e+01 -1.33214e+01
       O -3.94226e+00  2.20355e+00 -7.83008e-01
       H -3.85923e+00  6.54828e-01 -2.31626e-02
       H -4.06963e+00  2.24131e+00 -2.60245e+00
       O -8.23594e+00  9.55249e+00 -7.77030e-01
       H -7.99052e+00  7.57513e+00 -2.20747e-01
       H -8.41647e+00  9.65030e+00 -2.63308e+00
       O -4.47182e+00  2.54207e+00 -6.22913e+00
       H -6.10378e+00  3.35619e+00 -6.54258e+00
       H -2.70891e+00  3.46199e+00 -6.62688e+00
       O  8.15299e+00  9.95367e+00 -6.26945e+00
       H  6.76432e+00  1.10699e+01 -6.35973e+00
       H -7.40173e+00  1.10940e+01 -6.69176e+00
       O  8.17768e+00  5.24413e+00 -7.77404e+00
       H  8.51283e+00  5.06322e+00 -9.55495e+00
       H  8.40447e+00  7.00416e+00 -7.36583e+00
       O -4.58942e+00  1.25222e+01 -7.76947e+00
       H -4.49505e+00  1.25376e+01 -9.49540e+00
       H -4.67106e+00  1.44644e+01 -7.47686e+00
       O -8.23030e+00  4.81279e+00  6.79243e-01
       H  7.40224e+00  3.69087e+00  1.69241e-01
       H -6.61298e+00  3.73559e+00  4.25834e-01
       O -3.92435e+00  1.21204e+01  5.71539e-01
       H -5.32018e+00  1.11020e+01  9.66819e-02
       H -2.55008e+00  1.12526e+01  7.15299e-01
       O -4.00417e+00  2.13321e+00  1.30046e+01
       H -4.02289e+00  1.03511e-01  1.31240e+01
       H -4.25909e+00  2.01926e+00  1.13303e+01
       O -8.17168e+00  9.51757e+00  1.30322e+01
       H -8.37946e+00  7.63460e+00  1.36484e+01
       H -8.48719e+00  9.41385e+00  1.12046e+01
       O -4.47101e+00  2.58732e+00  7.60374e+00
       H -5.98364e+00  3.56201e+00  7.30442e+00
       H -2.88300e+00  3.54933e+00  7.07745e+00
       O  8.26068e+00  9.92328e+00  7.62618e+00
       H  6.79320e+00  1.07358e+01  7.11480e+00
       H -7.29995e+00  1.07935e+01  7.21650e+00
       O  8.24207e+00  5.13512e+00  6.15385e+00
       H  8.27803e+00  5.26138e+00  4.19967e+00
       H  8.21958e+00  6.81167e+00  6.79233e+00
       O -4.53502e+00  1.24849e+01  6.16157e+00
       H -4.34743e+00  1.28671e+01  4.59395e+00
       H -4.56924e+00  1.44473e+01  6.97868e+00
       O  2.90313e-01 -9.86409e+00 -1.32554e+01
       H -1.29754e+00 -1.09737e+01 -1.34071e+01
       H  1.65919e+00 -1.11173e+01 -1.34892e+01
       O  4.46962e+00 -2.51682e+00 -1.30895e+01
       H  3.01472e+00 -3.74892e+00 -1.34351e+01
       H  5.84904e+00 -3.35904e+00 -1.31895e+01
       O  4.57493e+00 -1.26422e+01 -7.60603e-01
       H  4.50299e+00 -1.43087e+01 -1.63359e-01
       H  4.34019e+00 -1.23568e+01 -2.53307e+00
       O  2.94479e-01 -5.17973e+00 -7.53769e-01
       H  1.95816e-01 -7.06103e+00 -1.69482e-01
       H  4.02300e-01 -5.17963e+00 -2.52386e+00
       O  3.98153e+00 -1.20930e+01 -6.26475e+00
       H  2.30933e+00 -1.13668e+01 -6.75067e+00
       H  5.63224e+00 -1.09953e+01 -7.03901e+00
       O -2.67435e-01 -4.78857e+00 -6.27906e+00
       H -2.02280e+00 -3.85981e+00 -6.84488e+00
       H  1.02868e+00 -3.68214e+00 -6.68138e+00
       O -2.53502e-01 -9.58653e+00 -7.62598e+00
       H -2.31493e-02 -9.63935e+00 -9.62123e+00
       H -1.73445e-01 -7.85092e+00 -7.23676e+00
       O  3.95667e+00 -2.14483e+00 -7.71449e+00
       H  4.07837e+00 -2.34476e+00 -9.57103e+00
       H  4.00444e+00 -4.47665e-01 -7.24948e+00
       O  2.57628e-01 -1.00020e+01  7.48769e-01
       H -9.83600e-01 -1.09453e+01 -4.22282e-03
       H  1.77187e+00 -1.10421e+01  2.89872e-01
       O  4.58324e+00 -2.61446e+00  6.54721e-01
       H  3.13911e+00 -3.62746e+00  5.32348e-01
       H  6.08567e+00 -3.69661e+00  4.96508e-01
       O  4.58084e+00 -1.25029e+01  1.30576e+01
       H  4.42762e+00 -1.44874e+01  1.36909e+01
       H  4.30840e+00 -1.25942e+01  1.14404e+01
       O  3.08001e-01 -5.14143e+00  1.30749e+01
       H  2.93038e-01 -6.90644e+00  1.35773e+01
       H -2.23446e-01 -5.35434e+00  1.11781e+01
       O  4.00008e+00 -1.21288e+01  7.57494e+00
       H  2.46608e+00 -1.09425e+01  7.69593e+00
       H  5.36026e+00 -1.11857e+01  6.90997e+00
       O -3.37099e-01 -4.79900e+00  7.60187e+00
       H -1.79681e+00 -3.75939e+00  7.32716e+00
       H  1.26060e+00 -3.76640e+00  7.35252e+00
       O -2.83842e-01 -9.51484e+00  6.12457e+00
       H -2.25306e-01 -9.29853e+00  4.42375e+00
       H -1.99367e-01 -7.67176e+00  6.92773e+00
       O  4.00690e+00 -2.22180e+00  6.05725e+00
       H  4.27038e+00 -1.82651e+00  4.47930e+00
       H  3.95973e+00 -3.15083e-01  6.58639e+00
       O  2.46567e-01  4.79045e+00 -1.32107e+01
       H -1.11573e+00  3.83913e+00 -1.38414e+01
       H  1.69971e+00  3.89247e+00 -1.36017e+01
       O  4.51357e+00  1.20771e+01 -1.31417e+01
       H  3.18547e+00  1.09160e+01 -1.37301e+01
       H  6.13300e+00  1.12115e+01 -1.36804e+01
       O  4.55025e+00  2.19714e+00 -8.21937e-01
       H  4.60914e+00  4.12685e-01  1.51496e-01
       H  4.24001e+00  2.41176e+00 -2.56172e+00
       O  2.52143e-01  9.53926e+00 -7.16073e-01
       H  1.78735e-01  7.89396e+00 -6.18171e-02
       H  1.17446e-02  9.53019e+00 -2.78132e+00
       O  4.02757e+00  2.53923e+00 -6.20110e+00
       H  2.52316e+00  3.60305e+00 -6.42184e+00
       H  5.47256e+00  3.63952e+00 -6.47882e+00
       O -1.87844e-01  9.92204e+00 -6.25346e+00
       H -1.75706e+00  1.08860e+01 -6.64677e+00
       H  1.25740e+00  1.09666e+01 -6.84813e+00
       O -3.31601e-01  5.20466e+00 -7.72454e+00
       H -4.35411e-01  5.08128e+00 -9.46593e+00
       H -5.75065e-02  7.11708e+00 -7.25454e+00
       O  3.93351e+00  1.24700e+01 -7.65060e+00
       H  4.23526e+00  1.28741e+01 -9.76912e+00
       H  4.04153e+00  1.42505e+01 -7.14141e+00
       O  2.45752e-01  4.75049e+00  6.14393e-01
       H -1.16144e+00  3.62893e+00  1.21030e-01
       H  1.94435e+00  3.59095e+00  2.32439e-01
       O  4.47482e+00  1.22362e+01  6.22804e-01
       H  2.94975e+00  1.11503e+01  2.14217e-01
       H  6.08023e+00  1.11760e+01  1.90816e-01
       O  4.59745e+00  2.25061e+00  1.30291e+01
       H  4.47989e+00  6.06811e-01  1.39120e+01
       H  4.24462e+00  2.15679e+00  1.11448e+01
       O  2.99860e-01  9.50800e+00  1.29880e+01
       H  3.00002e-01  7.63956e+00  1.35399e+01
       H  2.11758e-01  9.71206e+00  1.11616e+01
       O  3.99151e+00  2.49552e+00  7.58300e+00
       H  2.61155e+00  3.47300e+00  7.22767e+00
       H  5.36813e+00  3.25183e+00  7.19465e+00
       O -2.99345e-01  9.85018e+00  7.63478e+00
       H -1.87743e+00  1.09614e+01  7.42126e+00
       H  1.29398e+00  1.09130e+01  7.00158e+00
       O -3.64775e-01  5.20561e+00  6.17381e+00
       H -3.48773e-01  5.09271e+00  4.42626e+00
       H -1.43577e-01  7.07535e+00  6.59946e+00
       O  4.01829e+00  1.25460e+01  6.10418e+00
       H  4.03059e+00  1.27670e+01  4.42785e+00
       H  3.94533e+00  1.43206e+01  6.72840e+00
192
# CELL(abcABC):   16.99620    29.43815    27.67315    90.00000    90.00000    90.00000  Step:          20  Bead:      10 positions{atomic_unit}  cell{atomic_unit}
       O -8.20527e+00 -1.00130e+01 -1.31036e+01
       H  7.21739e+00 -1.07761e+01 -1.36129e+01
       H -6.60634e+00 -1.08356e+01 -1.38335e+01
       O -3.93722e+00 -2.52938e+00 -1.31265e+01
       H -5.56116e+00 -3.68996e+00 -1.33169e+01
       H -2.37326e+00 -3.65302e+00 -1.38065e+01
       O -4.02327e+00 -1.25700e+01 -8.12829e-01
       H -3.93283e+00 -1.44312e+01 -3.65047e-01
       H -4.29316e+00 -1.25284e+01 -2.57718e+00
       O -8.23233e+00 -5.14029e+00 -7.36618e-01
       H -8.07078e+00 -7.14124e+00 -4.35141e-01
       H -8.91896e+00 -4.91257e+00 -2.61190e+00
       O -4.47302e+00 -1.21796e+01 -6.29576e+00
       H -6.10973e+00 -1.09099e+01 -6.45391e+00
       H -2.86034e+00 -1.14295e+01 -6.86443e+00
       O  8.26227e+00 -4.80535e+00 -6.39575e+00
       H  6.70750e+00 -3.75224e+00 -6.84871e+00
       H -7.31391e+00 -3.70649e+00 -6.65665e+00
       O  8.16836e+00 -9.51771e+00 -7.60905e+00
       H  8.47188e+00 -9.62456e+00 -9.65181e+00
       H  8.06362e+00 -7.70972e+00 -6.72759e+00
       O -4.54033e+00 -2.16171e+00 -7.69850e+00
       H -4.07933e+00 -2.26524e+00 -9.54819e+00
       H -4.92123e+00 -2.84609e-01 -7.17924e+00
       O -8.26649e+00 -9.85456e+00  6.99508e-01
       H  7.37659e+00 -1.09946e+01  5.41299e-02
       H -6.87111e+00 -1.08289e+01  2.05730e-01
       O -3.94265e+00 -2.60649e+00  6.63358e-01
       H -5.28174e+00 -3.60630e+00  5.29425e-01
       H -2.57332e+00 -3.80267e+00  4.72625e-01
       O -3.94782e+00 -1.24971e+01  1.29902e+01
       H -4.23321e+00 -1.44593e+01  1.32921e+01
       H -3.98131e+00 -1.24327e+01  1.12680e+01
       O -8.16880e+00 -5.10508e+00  1.29628e+01
       H -8.10454e+00 -7.15865e+00  1.34857e+01
       H -8.17839e+00 -5.33771e+00  1.11103e+01
       O -4.50993e+00 -1.21425e+01  7.63495e+00
       H -5.95901e+00 -1.12292e+01  7.39711e+00
       H -2.85836e+00 -1.10639e+01  7.32347e+00
       O  8.21012e+00 -4.65455e+00  7.53631e+00
       H  6.62692e+00 -3.51004e+00  7.16407e+00
       H -7.26374e+00 -3.67796e+00  7.12316e+00
       O  8.15301e+00 -9.47088e+00  6.17548e+00
       H  8.10917e+00 -9.79363e+00  4.35997e+00
       H  7.85336e+00 -7.83635e+00  7.15238e+00
       O -4.62413e+00 -2.11166e+00  6.11424e+00
       H -4.34517e+00 -2.17461e+00  4.27710e+00
       H -4.40125e+00 -3.22312e-01  6.91563e+00
       O -8.22371e+00  4.76453e+00 -1.32321e+01
       H  7.33387e+00  3.70492e+00 -1.33054e+01
       H -6.66424e+00  3.75421e+00 -1.33817e+01
       O -4.01883e+00  1.21844e+01 -1.32038e+01
       H -5.59051e+00  1.13197e+01 -1.38463e+01
       H -2.45813e+00  1.09873e+01 -1.33550e+01
       O -3.93011e+00  2.15160e+00 -7.88830e-01
       H -4.07322e+00  4.85513e-01  5.22531e-02
       H -4.12886e+00  2.25405e+00 -2.62151e+00
       O -8.21879e+00  9.53825e+00 -7.44188e-01
       H -8.07894e+00  7.50383e+00 -3.13325e-01
       H -8.28110e+00  9.75069e+00 -2.73969e+00
       O -4.46766e+00  2.54216e+00 -6.26038e+00
       H -6.54411e+00  3.43228e+00 -6.36819e+00
       H -2.94450e+00  3.44667e+00 -6.75287e+00
       O  8.18111e+00  1.00050e+01 -6.27897e+00
       H  6.44853e+00  1.11961e+01 -6.33192e+00
       H -7.34734e+00  1.11767e+01 -6.58055e+00
       O  8.14652e+00  5.24572e+00 -7.78100e+00
       H  8.51446e+00  5.08711e+00 -9.54286e+00
       H  8.40880e+00  7.01500e+00 -7.21667e+00
       O -4.65958e+00  1.24381e+01 -7.76963e+00
       H -4.75301e+00  1.24166e+01 -9.76571e+00
       H -4.90427e+00  1.46923e+01 -7.40055e+00
       O -8.22022e+00  4.80279e+00  5.96410e-01
       H  7.23589e+00  3.41829e+00  2.75629e-01
       H -6.54094e+00  3.59932e+00  6.98162e-01
       O -3.90588e+00  1.20611e+01  5.71998e-01
       H -5.42937e+00  1.10129e+01  5.86447e-01
       H -2.37237e+00  1.11490e+01  6.39870e-01
       O -4.00564e+00  2.13259e+00  1.29198e+01
       H -3.94399e+00  5.22695e-02  1.31964e+01
       H -4.60973e+00  2.03972e+00  1.11761e+01
       O -8.21657e+00  9.53376e+00  1.30194e+01
       H -8.38542e+00  7.75412e+00  1.36496e+01
       H -8.52645e+00  9.22481e+00  1.11122e+01
       O -4.49364e+00  2.60099e+00  7.66571e+00
       H -5.90158e+00  3.66163e+00  7.10143e+00
       H -2.89484e+00  3.62396e+00  7.11360e+00
       O  8.30436e+00  9.88063e+00  7.61858e+00
       H  7.04302e+00  1.09908e+01  7.14972e+00
       H -7.15218e+00  1.11850e+01  7.00397e+00
       O  8.22889e+00  5.11028e+00  6.09926e+00
       H  8.27926e+00  5.46364e+00  4.34612e+00
       H  8.45292e+00  6.57360e+00  7.04202e+00
       O -4.56592e+00  1.26095e+01  6.15244e+00
       H -4.48104e+00  1.29945e+01  4.40145e+00
       H -4.66234e+00  1.43570e+01  6.88412e+00
       O  3.13521e-01 -9.84416e+00 -1.32194e+01
       H -1.23730e+00 -1.09586e+01 -1.33203e+01
       H  1.90074e+00 -1.14191e+01 -1.34901e+01
       O  4.51575e+00 -2.46868e+00 -1.30293e+01
       H  3.01754e+00 -3.60107e+00 -1.33536e+01
       H  5.97503e+00 -3.52582e+00 -1.31534e+01
       O  4.60322e+00 -1.25916e+01 -7.57716e-01
       H  4.68707e+00 -1.45613e+01 -7.63758e-02
       H  4.24921e+00 -1.22137e+01 -2.67157e+00
       O  2.21798e-01 -5.14015e+00 -7.60797e-01
       H  3.38940e-01 -6.79257e+00  2.77251e-02
       H  9.66928e-02 -5.16570e+00 -2.45799e+00
       O  3.98302e+00 -1.19979e+01 -6.17976e+00
       H  2.28720e+00 -1.12326e+01 -6.72932e+00
       H  5.29181e+00 -1.11134e+01 -6.82829e+00
       O -3.20532e-01 -4.81637e+00 -6.26534e+00
       H -2.10391e+00 -3.98498e+00 -6.55179e+00
       H  1.14172e+00 -3.87509e+00 -6.74978e+00
       O -2.91248e-01 -9.68888e+00 -7.62117e+00
       H -8.10485e-02 -9.94284e+00 -9.39896e+00
       H -1.52173e-01 -7.89273e+00 -6.85042e+00
       O  3.98212e+00 -2.25872e+00 -7.68134e+00
       H  4.33306e+00 -2.42635e+00 -9.40989e+00
       H  4.00931e+00 -4.25038e-01 -7.04229e+00
       O  2.17577e-01 -1.00556e+01  7.39567e-01
       H -1.06976e+00 -1.11115e+01  6.07646e-02
       H  2.05499e+00 -1.09254e+01  2.13921e-01
       O  4.58209e+00 -2.61650e+00  6.69696e-01
       H  3.10265e+00 -3.80855e+00  8.15528e-01
       H  5.97946e+00 -4.00242e+00  4.34515e-01
       O  4.60630e+00 -1.24903e+01  1.31803e+01
       H  4.50789e+00 -1.45923e+01  1.36210e+01
       H  4.05267e+00 -1.27010e+01  1.12462e+01
       O  3.71688e-01 -5.10552e+00  1.30223e+01
       H  2.92167e-01 -6.97944e+00  1.35823e+01
       H -1.25789e-01 -5.53600e+00  1.13683e+01
       O  3.95819e+00 -1.22513e+01  7.61082e+00
       H  2.46924e+00 -1.06674e+01  7.69833e+00
       H  5.48751e+00 -1.11565e+01  7.15990e+00
       O -2.49694e-01 -4.79341e+00  7.62672e+00
       H -1.64749e+00 -3.68446e+00  7.19725e+00
       H  1.18223e+00 -3.81227e+00  7.36353e+00
       O -2.84146e-01 -9.51428e+00  6.12676e+00
       H -2.66424e-01 -9.24459e+00  4.31809e+00
       H -4.91660e-01 -7.67996e+00  6.51662e+00
       O  4.04478e+00 -2.25483e+00  6.12370e+00
       H  4.54793e+00 -1.98231e+00  4.45020e+00
       H  4.20896e+00 -1.77593e-02  6.63425e+00
       O  2.54783e-01  4.80058e+00 -1.32199e+01
       H -1.42755e+00  3.83804e+00 -1.40545e+01
       H  1.80261e+00  3.88480e+00 -1.37132e+01
       O  4.47830e+00  1.20882e+01 -1.31856e+01
       H  3.35285e+00  1.07842e+01 -1.36559e+01
       H  6.24879e+00  1.11192e+01 -1.34723e+01
       O  4.46449e+00  2.21279e+00 -7.79480e-01
       H  4.79998e+00  5.96406e-01  8.02548e-02
       H  4.32649e+00  2.11590e+00 -2.58016e+00
       O  3.06478e-01  9.55473e+00 -6.65987e-01
       H  3.31500e-01  7.78251e+00 -3.09358e-02
       H  9.15317e-02  9.32361e+00 -2.69167e+00
       O  4.02045e+00  2.49883e+00 -6.12678e+00
       H  2.49661e+00  3.63445e+00 -6.19621e+00
       H  5.44349e+00  3.50974e+00 -6.38741e+00
       O -1.36568e-01  9.95089e+00 -6.26280e+00
       H -1.81758e+00  1.10057e+01 -6.61930e+00
       H  1.24741e+00  1.09604e+01 -6.65139e+00
       O -3.21141e-01  5.26045e+00 -7.62516e+00
       H -1.28445e-01  5.07223e+00 -9.77647e+00
       H  1.77051e-03  7.11270e+00 -7.20042e+00
       O  3.86296e+00  1.25376e+01 -7.65631e+00
       H  4.22750e+00  1.29562e+01 -9.46603e+00
       H  4.10139e+00  1.45098e+01 -6.75502e+00
       O  2.37902e-01  4.74189e+00  5.97242e-01
       H -1.11253e+00  3.55870e+00  1.64615e-01
       H  1.43923e+00  3.47116e+00  4.36193e-01
       O  4.41299e+00  1.22040e+01  6.33233e-01
       H  3.04134e+00  1.10681e+01  9.27826e-02
       H  6.19152e+00  1.15941e+01  4.62060e-01
       O  4.55890e+00  2.27777e+00  1.30441e+01
       H  4.42586e+00  5.19024e-01  1.36393e+01
       H  4.55850e+00  2.13366e+00  1.11221e+01
       O  3.04870e-01  9.47854e+00  1.29326e+01
       H  3.68248e-01  7.83456e+00  1.37288e+01
       H  8.38883e-02  9.46361e+00  1.11492e+01
       O  4.00152e+00  2.52142e+00  7.62290e+00
       H  2.33936e+00  3.30820e+00  7.02776e+00
       H  5.49004e+00  3.34676e+00  6.97162e+00
       O -2.90777e-01  9.83674e+00  7.62550e+00
       H -1.78366e+00  1.11410e+01  7.56787e+00
       H  1.12535e+00  1.10648e+01  7.07501e+00
       O -3.09076e-01  5.10903e+00  6.16210e+00
       H -1.82709e-01  5.60807e+00  4.22406e+00
       H -1.50132e-01  6.83407e+00  6.83813e+00
       O  4.12341e+00  1.25529e+01  6.17021e+00
       H  4.01143e+00  1.24795e+01  4.15018e+00
       H  3.57208e+00  1.44050e+01  6.79046e+00
192
# CELL(abcABC):   16.99620    29.43815    27.67315    90.00000    90.00000    90.00000  Step:          30  Bead:      10 positions{atomic_unit}  cell{atomic_unit}
       O -8.18698e+00 -9.95512e+00 -1.30535e+01
       H  7.19556e+00 -1.06043e+01 -1.36353e+01
       H -6.68169e+00 -1.10569e+01 -1.38534e+01
       O -3.96435e+00 -2.56479e+00 -1.31371e+01
       H -5.58191e+00 -3.44166e+00 -1.33704e+01
       H -2.47692e+00 -3.54898e+00 -1.36836e+01
       O -3.98455e+00 -1.25232e+01 -7.47792e-01
       H -3.95889e+00 -1.43456e+01 -7.84336e-02
       H -4.43278e+00 -1.27159e+01 -2.60225e+00
       O -8.26771e+00 -5.10532e+00 -7.55498e-01
       H -8.24078e+00 -7.17392e+00 -4.49675e-01
       H -8.81650e+00 -4.84336e+00 -2.45813e+00
       O -4.45063e+00 -1.21893e+01 -6.24821e+00
       H -5.77805e+00 -1.13363e+01 -6.52645e+00
       H -2.98966e+00 -1.15280e+01 -6.72216e+00
       O  8.35412e+00 -4.73233e+00 -6.39906e+00
       H  6.72744e+00 -3.77287e+00 -6.63896e+00
       H -7.17987e+00 -3.83428e+00 -6.77626e+00
       O  8.20962e+00 -9.49893e+00 -7.58926e+00
       H  8.45162e+00 -9.50989e+00 -9.47217e+00
       H  8.28366e+00 -7.66250e+00 -6.82958e+00
       O -4.53406e+00 -2.18152e+00 -7.67979e+00
       H -4.13480e+00 -2.13987e+00 -9.24244e+00
       H -4.95385e+00 -1.35862e-01 -7.29709e+00
       O -8.31237e+00 -9.80303e+00  6.44031e-01
       H  7.39798e+00 -1.10075e+01 -1.33183e-01
       H -6.58981e+00 -1.10733e+01  2.61646e-01
       O -3.90683e+00 -2.54119e+00  6.91894e-01
       H -5.65928e+00 -3.53568e+00  4.87577e-01
       H -2.42341e+00 -4.14128e+00  5.86717e-01
       O -3.98313e+00 -1.24880e+01  1.30042e+01
       H -4.01351e+00 -1.44104e+01  1.32358e+01
       H -4.18255e+00 -1.26340e+01  1.12564e+01
       O -8.16413e+00 -5.11445e+00  1.30469e+01
       H -8.09492e+00 -7.09138e+00  1.35952e+01