192
# CELL(abcABC):   16.99620    29.43815    27.67315    90.00000    90.00000    90.00000  Step:           0  Bead:      14 positions{atomic_unit}  cell{atomic_unit}
       O -8.21943e+00 -9.93714e+00 -1.31733e+01
       H  7.30975e+00 -1.09659e+01 -1.36333e+01
       H -6.70309e+00 -1.09427e+01 -1.35003e+01
       O -3.97045e+00 -2.57760e+00 -1.31733e+01
       H -5.43740e+00 -3.60640e+00 -1.36335e+01
       H -2.45410e+00 -3.58307e+00 -1.35002e+01
       O -3.95479e+00 -1.25494e+01 -7.82537e-01
       H -3.95303e+00 -1.43463e+01 -2.27998e-01
       H -4.14654e+00 -1.25640e+01 -2.59980e+00
       O -8.20381e+00 -5.18980e+00 -7.82573e-01
       H -8.20206e+00 -6.98662e+00 -2.28079e-01
       H -8.39554e+00 -5.20430e+00 -2.59985e+00
       O -4.52774e+00 -1.21415e+01 -6.25501e+00
       H -6.04401e+00 -1.11359e+01 -6.58198e+00
       H -3.06070e+00 -1.11128e+01 -6.71509e+00
       O  8.21948e+00 -4.78197e+00 -6.25503e+00
       H  6.70316e+00 -3.77646e+00 -6.58191e+00
       H -7.30970e+00 -3.75321e+00 -6.71514e+00
       O  8.20373e+00 -9.52922e+00 -7.70081e+00
       H  8.39566e+00 -9.51468e+00 -9.51806e+00
       H  8.20220e+00 -7.73240e+00 -7.14624e+00
       O -4.54345e+00 -2.16975e+00 -7.70084e+00
       H -4.35162e+00 -2.15526e+00 -9.51812e+00
       H -4.54503e+00 -3.72917e-01 -7.14634e+00
       O -8.21943e+00 -9.93697e+00  6.63195e-01
       H  7.30977e+00 -1.09657e+01  2.03202e-01
       H -6.70308e+00 -1.09425e+01  3.36227e-01
       O -3.97044e+00 -2.57760e+00  6.63173e-01
       H -5.43747e+00 -3.60635e+00  2.03069e-01
       H -2.45410e+00 -3.58312e+00  3.36346e-01
       O -3.95472e+00 -1.25494e+01  1.30540e+01
       H -3.95309e+00 -1.43462e+01  1.36086e+01
       H -4.14653e+00 -1.25640e+01  1.12368e+01
       O -8.20380e+00 -5.18990e+00  1.30541e+01
       H -8.20202e+00 -6.98672e+00  1.36085e+01
       H -8.39553e+00 -5.20434e+00  1.12368e+01
       O -4.52771e+00 -1.21415e+01  7.58159e+00
       H -6.04402e+00 -1.11360e+01  7.25460e+00
       H -3.06070e+00 -1.11128e+01  7.12152e+00
       O  8.21944e+00 -4.78191e+00  7.58149e+00
       H  6.70312e+00 -3.77633e+00  7.25453e+00
       H -7.30974e+00 -3.75322e+00  7.12139e+00
       O  8.20378e+00 -9.52926e+00  6.13582e+00
       H  8.39564e+00 -9.51474e+00  4.31856e+00
       H  8.20221e+00 -7.73246e+00  6.69037e+00
       O -4.54344e+00 -2.16971e+00  6.13568e+00
       H -4.35161e+00 -2.15522e+00  4.31840e+00
       H -4.54506e+00 -3.72896e-01  6.69017e+00
       O -8.21947e+00  4.78210e+00 -1.31734e+01
       H  7.30974e+00  3.75335e+00 -1.36334e+01
       H -6.70314e+00  3.77651e+00 -1.35002e+01
       O -3.97046e+00  1.21415e+01 -1.31733e+01
       H -5.43745e+00  1.11127e+01 -1.36334e+01
       H -2.45410e+00  1.11360e+01 -1.35002e+01
       O -3.95479e+00  2.16971e+00 -7.82462e-01
       H -3.95303e+00  3.72884e-01 -2.27933e-01
       H -4.14646e+00  2.15509e+00 -2.59975e+00
       O -8.20376e+00  9.52923e+00 -7.82499e-01
       H -8.20200e+00  7.73238e+00 -2.27998e-01
       H -8.39546e+00  9.51472e+00 -2.59977e+00
       O -4.52774e+00  2.57749e+00 -6.25512e+00
       H -6.04400e+00  3.58312e+00 -6.58197e+00
       H -3.06066e+00  3.60618e+00 -6.71512e+00
       O  8.21949e+00  9.93715e+00 -6.25509e+00
       H  6.70318e+00  1.09426e+01 -6.58202e+00
       H -7.30970e+00  1.09659e+01 -6.71526e+00
       O  8.20366e+00  5.18988e+00 -7.70077e+00
       H  8.39552e+00  5.20437e+00 -9.51803e+00
       H  8.20217e+00  6.98669e+00 -7.14625e+00
       O -4.54337e+00  1.25494e+01 -7.70088e+00
       H -4.35159e+00  1.25639e+01 -9.51817e+00
       H -4.54500e+00  1.43462e+01 -7.14634e+00
       O -8.21952e+00  4.78190e+00  6.63226e-01
       H  7.30971e+00  3.75313e+00  2.03107e-01
       H -6.70317e+00  3.77635e+00  3.36440e-01
       O -3.97040e+00  1.21415e+01  6.63326e-01
       H -5.43738e+00  1.11127e+01  2.03185e-01
       H -2.45407e+00  1.11360e+01  3.36426e-01
       O -3.95476e+00  2.16964e+00  1.30541e+01
       H -3.95303e+00  3.72832e-01  1.36087e+01
       H -4.14651e+00  2.15510e+00  1.12369e+01
       O -8.20373e+00  9.52937e+00  1.30540e+01
       H -8.20206e+00  7.73252e+00  1.36085e+01
       H -8.39548e+00  9.51483e+00  1.12368e+01
       O -4.52770e+00  2.57756e+00  7.58140e+00
       H -6.04399e+00  3.58315e+00  7.25450e+00
       H -3.06066e+00  3.60630e+00  7.12138e+00
       O  8.21951e+00  9.93714e+00  7.58157e+00
       H  6.70319e+00  1.09427e+01  7.25463e+00
       H -7.30968e+00  1.09658e+01  7.12140e+00
       O  8.20369e+00  5.18993e+00  6.13578e+00
       H  8.39547e+00  5.20441e+00  4.31850e+00
       H  8.20212e+00  6.98674e+00  6.69030e+00
       O -4.54348e+00  1.25494e+01  6.13570e+00
       H -4.35158e+00  1.25639e+01  4.31845e+00
       H -4.54503e+00  1.43462e+01  6.69025e+00
       O  2.78573e-01 -9.93717e+00 -1.31734e+01
       H -1.18842e+00 -1.09659e+01 -1.36336e+01
       H  1.79493e+00 -1.09427e+01 -1.35002e+01
       O  4.52772e+00 -2.57751e+00 -1.31733e+01
       H  3.06068e+00 -3.60627e+00 -1.36334e+01
       H  6.04403e+00 -3.58305e+00 -1.35003e+01
       O  4.54334e+00 -1.25494e+01 -7.82465e-01
       H  4.54513e+00 -1.43463e+01 -2.27989e-01
       H  4.35168e+00 -1.25640e+01 -2.59974e+00
       O  2.94294e-01 -5.18980e+00 -7.82487e-01
       H  2.96032e-01 -6.98663e+00 -2.28053e-01
       H  1.02602e-01 -5.20427e+00 -2.59977e+00
       O  3.97042e+00 -1.21415e+01 -6.25517e+00
       H  2.45414e+00 -1.11359e+01 -6.58198e+00
       H  5.43747e+00 -1.11128e+01 -6.71526e+00
       O -2.78672e-01 -4.78194e+00 -6.25508e+00
       H -1.79498e+00 -3.77636e+00 -6.58199e+00
       H  1.18837e+00 -3.75320e+00 -6.71514e+00
       O -2.94511e-01 -9.52920e+00 -7.70081e+00
       H -1.02600e-01 -9.51466e+00 -9.51806e+00
       H -2.96005e-01 -7.73240e+00 -7.14625e+00
       O  3.95462e+00 -2.16972e+00 -7.70080e+00
       H  4.14654e+00 -2.15521e+00 -9.51804e+00
       H  3.95318e+00 -3.72879e-01 -7.14628e+00
       O  2.78541e-01 -9.93701e+00  6.63104e-01
       H -1.18842e+00 -1.09658e+01  2.03011e-01
       H  1.79493e+00 -1.09425e+01  3.36333e-01
       O  4.52773e+00 -2.57757e+00  6.63187e-01
       H  3.06068e+00 -3.60633e+00  2.03125e-01
       H  6.04402e+00 -3.58308e+00  3.36357e-01
       O  4.54332e+00 -1.25494e+01  1.30541e+01
       H  4.54518e+00 -1.43462e+01  1.36086e+01
       H  4.35169e+00 -1.25640e+01  1.12368e+01
       O  2.94281e-01 -5.18991e+00  1.30541e+01
       H  2.95995e-01 -6.98675e+00  1.36085e+01
       H  1.02570e-01 -5.20435e+00  1.12368e+01
       O  3.97044e+00 -1.21415e+01  7.58145e+00
       H  2.45413e+00 -1.11360e+01  7.25466e+00
       H  5.43745e+00 -1.11128e+01  7.12135e+00
       O -2.78601e-01 -4.78191e+00  7.58148e+00
       H -1.79495e+00 -3.77634e+00  7.25458e+00
       H  1.18839e+00 -3.75323e+00  7.12138e+00
       O -2.94501e-01 -9.52922e+00  6.13582e+00
       H -1.02637e-01 -9.51466e+00  4.31854e+00
       H -2.96013e-01 -7.73241e+00  6.69035e+00
       O  3.95462e+00 -2.16967e+00  6.13570e+00
       H  4.14656e+00 -2.15516e+00  4.31844e+00
       H  3.95315e+00 -3.72836e-01  6.69024e+00
       O  2.78636e-01  4.78206e+00 -1.31735e+01
       H -1.18832e+00  3.75329e+00 -1.36335e+01
       H  1.79499e+00  3.77651e+00 -1.35003e+01
       O  4.52773e+00  1.21415e+01 -1.31733e+01
       H  3.06066e+00  1.11127e+01 -1.36334e+01
       H  6.04403e+00  1.11360e+01 -1.35003e+01
       O  4.54332e+00  2.16970e+00 -7.82499e-01
       H  4.54510e+00  3.72872e-01 -2.27973e-01
       H  4.35161e+00  2.15513e+00 -2.59979e+00
       O  2.94188e-01  9.52923e+00 -7.82517e-01
       H  2.95976e-01  7.73239e+00 -2.28033e-01
       H  1.02486e-01  9.51470e+00 -2.59980e+00
       O  3.97041e+00  2.57752e+00 -6.25508e+00
       H  2.45414e+00  3.58307e+00 -6.58188e+00
       H  5.43747e+00  3.60626e+00 -6.71516e+00
       O -2.78677e-01  9.93714e+00 -6.25506e+00
       H -1.79497e+00  1.09427e+01 -6.58203e+00
       H  1.18838e+00  1.09659e+01 -6.71517e+00
       O -2.94451e-01  5.18990e+00 -7.70074e+00
       H -1.02475e-01  5.20442e+00 -9.51799e+00
       H -2.95971e-01  6.98671e+00 -7.14623e+00
       O  3.95453e+00  1.25494e+01 -7.70088e+00
       H  4.14650e+00  1.25638e+01 -9.51813e+00
       H  3.95314e+00  1.43462e+01 -7.14638e+00
       O  2.78666e-01  4.78190e+00  6.63181e-01
       H -1.18838e+00  3.75314e+00  2.03219e-01
       H  1.79499e+00  3.77637e+00  3.36305e-01
       O  4.52768e+00  1.21415e+01  6.63233e-01
       H  3.06065e+00  1.11127e+01  2.03130e-01
       H  6.04402e+00  1.11359e+01  3.36318e-01
       O  4.54337e+00  2.16963e+00  1.30541e+01
       H  4.54515e+00  3.72778e-01  1.36085e+01
       H  4.35165e+00  2.15511e+00  1.12368e+01
       O  2.94139e-01  9.52935e+00  1.30540e+01
       H  2.96028e-01  7.73252e+00  1.36085e+01
       H  1.02508e-01  9.51480e+00  1.12368e+01
       O  3.97044e+00  2.57752e+00  7.58146e+00
       H  2.45409e+00  3.58312e+00  7.25468e+00
       H  5.43745e+00  3.60627e+00  7.12136e+00
       O -2.78642e-01  9.93713e+00  7.58156e+00
       H -1.79498e+00  1.09426e+01  7.25459e+00
       H  1.18834e+00  1.09658e+01  7.12145e+00
       O -2.94462e-01  5.18993e+00  6.13575e+00
       H -1.02485e-01  5.20444e+00  4.31854e+00
       H -2.95928e-01  6.98677e+00  6.69031e+00
       O  3.95461e+00  1.25493e+01  6.13580e+00
       H  4.14651e+00  1.25638e+01  4.31854e+00
       H  3.95313e+00  1.43462e+01  6.69028e+00
192
# CELL(abcABC):   16.99620    29.43815    27.67315    90.00000    90.00000    90.00000  Step:          10  Bead:      14 positions{atomic_unit}  cell{atomic_unit}
       O -8.21125e+00 -1.00032e+01 -1.31431e+01
       H  7.20990e+00 -1.08644e+01 -1.36429e+01
       H -6.78804e+00 -1.11357e+01 -1.35478e+01
       O -3.97316e+00 -2.58142e+00 -1.31621e+01
       H -5.49171e+00 -3.68398e+00 -1.35688e+01
       H -2.51647e+00 -3.57403e+00 -1.35655e+01
       O -3.95618e+00 -1.25437e+01 -7.94899e-01
       H -3.88913e+00 -1.41423e+01 -1.55387e-01
       H -4.28026e+00 -1.26921e+01 -2.67776e+00
       O -8.17531e+00 -5.14992e+00 -8.21815e-01
       H -8.29901e+00 -6.88622e+00 -3.31842e-01
       H -8.20609e+00 -5.06201e+00 -2.62171e+00
       O -4.50684e+00 -1.21739e+01 -6.21105e+00
       H -5.95307e+00 -1.11215e+01 -6.50336e+00
       H -2.88511e+00 -1.11008e+01 -6.78750e+00
       O  8.21059e+00 -4.79242e+00 -6.28745e+00
       H  6.73965e+00 -3.78969e+00 -6.71714e+00
       H -7.32928e+00 -3.74750e+00 -6.84282e+00
       O  8.18062e+00 -9.53206e+00 -7.65422e+00
       H  8.42132e+00 -9.31730e+00 -9.57397e+00
       H  8.20430e+00 -7.60697e+00 -6.95890e+00
       O -4.55696e+00 -2.12870e+00 -7.71217e+00
       H -4.22666e+00 -2.18768e+00 -9.58772e+00
       H -4.59085e+00 -4.17165e-01 -7.26098e+00
       O -8.22270e+00 -9.95292e+00  6.62937e-01
       H  7.34713e+00 -1.09149e+01  3.60665e-01
       H -6.68274e+00 -1.10069e+01  2.59211e-01
       O -3.99640e+00 -2.61453e+00  6.86169e-01
       H -5.41432e+00 -3.59504e+00  1.26383e-01
       H -2.44625e+00 -3.69288e+00  3.15123e-01
       O -3.92617e+00 -1.25525e+01  1.30416e+01
       H -3.84427e+00 -1.44042e+01  1.35255e+01
       H -4.01674e+00 -1.26560e+01  1.13180e+01
       O -8.18216e+00 -5.18025e+00  1.30325e+01
       H -8.19578e+00 -6.90445e+00  1.36450e+01
       H -8.36976e+00 -5.14779e+00  1.11480e+01
       O -4.51917e+00 -1.21273e+01  7.57058e+00
       H -6.15152e+00 -1.11163e+01  7.23162e+00
       H -3.08540e+00 -1.10879e+01  7.11908e+00
       O  8.20658e+00 -4.76125e+00  7.63109e+00
       H  6.71335e+00 -3.63758e+00  7.18097e+00
       H -7.11038e+00 -3.53274e+00  7.16417e+00
       O  8.17835e+00 -9.56636e+00  6.16400e+00
       H  8.43704e+00 -9.41002e+00  4.30255e+00
       H  8.11140e+00 -7.76293e+00  6.64222e+00
       O -4.52976e+00 -2.17276e+00  6.12727e+00
       H -4.24778e+00 -2.27920e+00  4.25221e+00
       H -4.56521e+00 -3.35543e-01  6.71916e+00
       O -8.20940e+00  4.76550e+00 -1.31698e+01
       H  7.39800e+00  3.70096e+00 -1.34375e+01
       H -6.75734e+00  3.80955e+00 -1.35777e+01
       O -3.97722e+00  1.21353e+01 -1.32124e+01
       H -5.52402e+00  1.11137e+01 -1.34966e+01
       H -2.53716e+00  1.12874e+01 -1.34424e+01
       O -3.90700e+00  2.13844e+00 -8.22028e-01
       H -3.95349e+00  4.42525e-01 -1.25691e-01
       H -4.12414e+00  2.15587e+00 -2.58302e+00
       O -8.21450e+00  9.55308e+00 -8.13198e-01
       H -8.13793e+00  7.70235e+00 -1.64833e-01
       H -8.43326e+00  9.52486e+00 -2.63250e+00
       O -4.52950e+00  2.58592e+00 -6.24228e+00
       H -6.23473e+00  3.57379e+00 -6.46781e+00
       H -3.19182e+00  3.56259e+00 -6.67057e+00
       O  8.20879e+00  9.91147e+00 -6.25163e+00
       H  6.72009e+00  1.07473e+01 -6.62589e+00
       H -7.26559e+00  1.09265e+01 -6.56531e+00
       O  8.15450e+00  5.20795e+00 -7.71773e+00
       H  8.34568e+00  5.11168e+00 -9.58080e+00
       H  8.13279e+00  7.04584e+00 -7.19716e+00
       O -4.53756e+00  1.25347e+01 -7.70743e+00
       H -4.62356e+00  1.25544e+01 -9.68170e+00
       H -4.68571e+00  1.43881e+01 -7.20018e+00
       O -8.18588e+00  4.78253e+00  6.48482e-01
       H  7.28602e+00  3.85552e+00  2.65857e-01
       H -6.66279e+00  3.80499e+00  3.51707e-01
       O -3.96608e+00  1.21332e+01  6.40694e-01
       H -5.46534e+00  1.10274e+01  3.33137e-01
       H -2.50531e+00  1.11919e+01  5.31772e-01
       O -3.92944e+00  2.19243e+00  1.30795e+01
       H -3.93141e+00  3.21020e-01  1.34718e+01
       H -4.10156e+00  2.17551e+00  1.11560e+01
       O -8.19090e+00  9.54767e+00  1.30574e+01
       H -8.30612e+00  7.64988e+00  1.35484e+01
       H -8.38624e+00  9.41155e+00  1.12096e+01
       O -4.50786e+00  2.62887e+00  7.57961e+00
       H -6.09359e+00  3.60716e+00  7.23913e+00
       H -3.09864e+00  3.67218e+00  7.12759e+00
       O  8.24005e+00  9.95413e+00  7.59863e+00
       H  6.80849e+00  1.08163e+01  7.22888e+00
       H -7.33919e+00  1.09016e+01  7.28361e+00
       O  8.21270e+00  5.22272e+00  6.15959e+00
       H  8.24527e+00  5.36016e+00  4.38790e+00
       H  8.19925e+00  7.12159e+00  6.77388e+00
       O -4.54197e+00  1.25190e+01  6.13276e+00
       H -4.26214e+00  1.25196e+01  4.42168e+00
       H -4.53394e+00  1.45034e+01  6.75761e+00
       O  2.72885e-01 -9.94302e+00 -1.31791e+01
       H -1.20028e+00 -1.09103e+01 -1.36745e+01
       H  1.62906e+00 -1.08814e+01 -1.34043e+01
       O  4.55740e+00 -2.58715e+00 -1.31420e+01
       H  2.99647e+00 -3.50178e+00 -1.34998e+01
       H  6.07409e+00 -3.52842e+00 -1.35014e+01
       O  4.57767e+00 -1.25974e+01 -7.71808e-01
       H  4.49816e+00 -1.43029e+01 -3.12913e-01
       H  4.34986e+00 -1.24977e+01 -2.59117e+00
       O  2.90251e-01 -5.16357e+00 -7.64918e-01
       H  3.54116e-01 -7.03499e+00 -1.90346e-01
       H  2.10609e-02 -5.13811e+00 -2.53787e+00
       O  3.97967e+00 -1.21466e+01 -6.24800e+00
       H  2.43882e+00 -1.11524e+01 -6.59755e+00
       H  5.71681e+00 -1.09660e+01 -6.68707e+00
       O -2.77887e-01 -4.79653e+00 -6.29246e+00
       H -1.90610e+00 -3.76230e+00 -6.56377e+00
       H  1.24041e+00 -3.84600e+00 -6.86962e+00
       O -2.59012e-01 -9.56146e+00 -7.69169e+00
       H -1.75279e-01 -9.61936e+00 -9.60614e+00
       H -3.47301e-01 -7.73500e+00 -7.39062e+00
       O  3.94316e+00 -2.21031e+00 -7.67086e+00
       H  4.06258e+00 -2.04832e+00 -9.34875e+00
       H  3.94170e+00 -4.89934e-01 -7.08570e+00
       O  2.85979e-01 -9.98208e+00  6.77881e-01
       H -1.18873e+00 -1.09661e+01  1.53004e-01
       H  1.82903e+00 -1.09706e+01  4.54419e-01
       O  4.54415e+00 -2.58597e+00  6.62587e-01
       H  3.09335e+00 -3.57592e+00  3.05031e-01
       H  6.17607e+00 -3.71546e+00  3.63588e-01
       O  4.56813e+00 -1.25164e+01  1.30497e+01
       H  4.57211e+00 -1.44588e+01  1.36980e+01
       H  4.11327e+00 -1.26388e+01  1.11846e+01
       O  3.00640e-01 -5.20613e+00  1.30137e+01
       H  3.23114e-01 -7.01759e+00  1.34896e+01
       H  7.26478e-02 -5.26018e+00  1.12941e+01
       O  3.95778e+00 -1.21474e+01  7.55878e+00
       H  2.59955e+00 -1.11772e+01  7.29528e+00
       H  5.40212e+00 -1.10740e+01  7.03346e+00
       O -2.51229e-01 -4.75362e+00  7.55715e+00
       H -1.88074e+00 -3.82390e+00  7.20014e+00
       H  1.12354e+00 -3.70481e+00  7.19049e+00
       O -2.90226e-01 -9.55107e+00  6.13027e+00
       H -2.58228e-04 -9.43008e+00  4.27755e+00
       H -2.97131e-01 -7.73441e+00  6.80839e+00
       O  3.99508e+00 -2.23809e+00  6.13731e+00
       H  4.23336e+00 -2.17948e+00  4.38352e+00
       H  4.07138e+00 -4.45074e-01  6.55389e+00
       O  2.55407e-01  4.75239e+00 -1.31190e+01
       H -1.21586e+00  3.78777e+00 -1.37802e+01
       H  1.69591e+00  3.65344e+00 -1.36370e+01
       O  4.55612e+00  1.21692e+01 -1.31571e+01
       H  3.13823e+00  1.10293e+01 -1.35935e+01
       H  6.10689e+00  1.12748e+01 -1.35509e+01
       O  4.52821e+00  2.19683e+00 -7.94262e-01
       H  4.44416e+00  5.61787e-01 -2.93952e-01
       H  4.28108e+00  2.11421e+00 -2.46249e+00
       O  2.81634e-01  9.54365e+00 -7.92847e-01
       H  2.90564e-01  7.74469e+00 -2.19856e-01
       H  1.45851e-01  9.54141e+00 -2.74614e+00
       O  3.95179e+00  2.59566e+00 -6.24164e+00
       H  2.53422e+00  3.58530e+00 -6.46994e+00
       H  5.47220e+00  3.54779e+00 -6.84295e+00
       O -2.97303e-01  9.99238e+00 -6.23985e+00
       H -1.87964e+00  1.10179e+01 -6.56796e+00
       H  1.35237e+00  1.09634e+01 -6.70422e+00
       O -2.76730e-01  5.19733e+00 -7.69710e+00
       H -5.71611e-02  5.26828e+00 -9.42240e+00
       H -8.62898e-02  7.10367e+00 -7.22218e+00
       O  3.92381e+00  1.25511e+01 -7.64598e+00
       H  4.06219e+00  1.24173e+01 -9.50016e+00
       H  4.00738e+00  1.41781e+01 -7.30557e+00
       O  2.69859e-01  4.77558e+00  6.68246e-01
       H -1.15482e+00  3.72501e+00  9.96054e-02
       H  1.85133e+00  3.58210e+00  4.88883e-01
       O  4.50840e+00  1.21566e+01  6.50543e-01
       H  3.08427e+00  1.10545e+01  1.37075e-01
       H  6.08710e+00  1.12741e+01  5.16463e-01
       O  4.53008e+00  2.16452e+00  1.30355e+01
       H  4.63479e+00  2.36669e-01  1.36822e+01
       H  4.53557e+00  2.09494e+00  1.11746e+01
       O  2.70885e-01  9.54042e+00  1.30535e+01
       H  3.40696e-01  7.83613e+00  1.37572e+01
       H  1.99287e-01  9.45037e+00  1.11380e+01
       O  3.97857e+00  2.58007e+00  7.60153e+00
       H  2.44571e+00  3.40167e+00  7.13811e+00
       H  5.24407e+00  3.60296e+00  7.12478e+00
       O -2.96033e-01  9.93944e+00  7.56921e+00
       H -1.92277e+00  1.07504e+01  7.21393e+00
       H  1.21417e+00  1.08990e+01  6.97446e+00
       O -3.03489e-01  5.15905e+00  6.13749e+00
       H -1.50491e-01  5.28919e+00  4.53262e+00
       H -5.09276e-01  7.01730e+00  6.67746e+00
       O  3.94774e+00  1.25327e+01  6.13472e+00
       H  4.01006e+00  1.27540e+01  4.41938e+00
       H  4.05959e+00  1.44102e+01  6.79345e+00
192
# CELL(abcABC):   16.99620    29.43815    27.67315    90.00000    90.00000    90.00000  Step:          20  Bead:      14 positions{atomic_unit}  cell{atomic_unit}
       O -8.22134e+00 -9.99550e+00 -1.31398e+01
       H  7.13120e+00 -1.08049e+01 -1.37160e+01
       H -6.87561e+00 -1.11662e+01 -1.36335e+01
       O -3.98893e+00 -2.61217e+00 -1.31416e+01
       H -5.33390e+00 -3.69618e+00 -1.35076e+01
       H -2.46788e+00 -3.51143e+00 -1.35863e+01
       O -3.93668e+00 -1.25491e+01 -7.56457e-01
       H -4.03462e+00 -1.41811e+01 -1.31144e-01
       H -4.36124e+00 -1.25761e+01 -2.61750e+00
       O -8.15682e+00 -5.19526e+00 -8.19616e-01
       H -8.34444e+00 -6.86399e+00 -3.32502e-01
       H -8.18813e+00 -4.96118e+00 -2.55615e+00
       O -4.50992e+00 -1.21793e+01 -6.21317e+00
       H -6.11190e+00 -1.11946e+01 -6.41174e+00
       H -2.96094e+00 -1.12976e+01 -6.86783e+00
       O  8.23064e+00 -4.76596e+00 -6.31395e+00
       H  6.71003e+00 -3.83868e+00 -6.68825e+00
       H -7.32246e+00 -3.78987e+00 -6.78047e+00
       O  8.17511e+00 -9.49835e+00 -7.64798e+00
       H  8.46456e+00 -9.42359e+00 -9.42981e+00
       H  8.17580e+00 -7.35360e+00 -6.94671e+00
       O -4.55220e+00 -2.12951e+00 -7.71077e+00
       H -4.19127e+00 -2.07796e+00 -9.56028e+00
       H -4.59782e+00 -4.20153e-01 -7.18235e+00
       O -8.22388e+00 -9.91253e+00  6.50705e-01
       H  7.37272e+00 -1.09220e+01  2.05689e-01
       H -6.73347e+00 -1.08642e+01  1.97503e-01
       O -3.96042e+00 -2.66316e+00  6.84514e-01
       H -5.44578e+00 -3.65511e+00  3.47223e-01
       H -2.54488e+00 -3.70305e+00  3.79341e-01
       O -3.98676e+00 -1.25283e+01  1.30633e+01
       H -3.85617e+00 -1.44129e+01  1.35015e+01
       H -4.02340e+00 -1.27777e+01  1.11691e+01
       O -8.14805e+00 -5.14746e+00  1.30120e+01
       H -8.11791e+00 -7.01263e+00  1.37818e+01
       H -8.27290e+00 -5.09087e+00  1.12056e+01
       O -4.54379e+00 -1.21354e+01  7.59318e+00
       H -6.03181e+00 -1.11788e+01  7.29048e+00
       H -3.33813e+00 -1.10728e+01  7.01403e+00
       O  8.25924e+00 -4.73665e+00  7.60186e+00
       H  6.75391e+00 -3.70595e+00  7.19809e+00
       H -7.22997e+00 -3.80712e+00  7.11207e+00
       O  8.20254e+00 -9.55854e+00  6.20038e+00
       H  8.34571e+00 -9.34245e+00  4.47050e+00
       H  8.08384e+00 -7.77574e+00  6.82961e+00
       O -4.52146e+00 -2.10779e+00  6.07771e+00
       H -4.22628e+00 -2.30924e+00  4.37729e+00
       H -4.50530e+00 -4.88706e-01  6.66514e+00
       O -8.19171e+00  4.74334e+00 -1.31706e+01
       H  7.29935e+00  3.64537e+00 -1.33192e+01
       H -6.78882e+00  3.67342e+00 -1.35645e+01
       O -3.99117e+00  1.21295e+01 -1.31951e+01
       H -5.54784e+00  1.12019e+01 -1.37763e+01
       H -2.37532e+00  1.13704e+01 -1.33455e+01
       O -3.90697e+00  2.13671e+00 -8.66328e-01
       H -3.98800e+00  5.19749e-01 -2.16207e-01
       H -4.30892e+00  2.12593e+00 -2.69504e+00
       O -8.21331e+00  9.55160e+00 -8.11272e-01
       H -8.00230e+00  7.75144e+00 -2.80740e-01
       H -8.48545e+00  9.45280e+00 -2.76524e+00
       O -4.51041e+00  2.62361e+00 -6.27759e+00
       H -6.21048e+00  3.60460e+00 -6.45110e+00
       H -3.28603e+00  3.60212e+00 -6.74600e+00
       O  8.17596e+00  9.93590e+00 -6.22631e+00
       H  6.85534e+00  1.06716e+01 -6.65590e+00
       H -7.32464e+00  1.07660e+01 -6.51069e+00
       O  8.14387e+00  5.24774e+00 -7.70456e+00
       H  8.33717e+00  5.08493e+00 -9.51773e+00
       H  8.11988e+00  6.98012e+00 -7.32576e+00
       O -4.51526e+00  1.25122e+01 -7.69537e+00
       H -4.56067e+00  1.25144e+01 -9.66064e+00
       H -4.53928e+00  1.45238e+01 -7.22351e+00
       O -8.17918e+00  4.78130e+00  6.09813e-01
       H  7.47141e+00  3.90026e+00  3.24588e-01
       H -6.49658e+00  3.68205e+00  5.27435e-01
       O -3.93881e+00  1.21464e+01  6.37459e-01
       H -5.54221e+00  1.10803e+01  3.72635e-01
       H -2.49065e+00  1.11730e+01  4.60017e-01
       O -3.93134e+00  2.19924e+00  1.30712e+01
       H -4.01556e+00  3.41540e-01  1.33020e+01
       H -4.23477e+00  2.18095e+00  1.11702e+01
       O -8.17380e+00  9.53742e+00  1.30389e+01
       H -8.36774e+00  7.64122e+00  1.35488e+01
       H -8.58621e+00  9.42793e+00  1.13240e+01
       O -4.47756e+00  2.62193e+00  7.61067e+00
       H -5.91406e+00  3.43702e+00  7.20100e+00
       H -2.94241e+00  3.71629e+00  7.07241e+00
       O  8.26478e+00  9.94566e+00  7.56589e+00
       H  6.81365e+00  1.08309e+01  7.19969e+00
       H -7.30383e+00  1.08012e+01  7.34195e+00
       O  8.18453e+00  5.21261e+00  6.16438e+00
       H  8.26101e+00  5.41016e+00  4.37077e+00
       H  8.25772e+00  7.20297e+00  6.70447e+00
       O -4.54829e+00  1.25320e+01  6.15787e+00
       H -4.32943e+00  1.24848e+01  4.56246e+00
       H -4.66602e+00  1.46253e+01  6.96334e+00
       O  2.64946e-01 -9.91983e+00 -1.31962e+01
       H -1.23883e+00 -1.07951e+01 -1.38256e+01
       H  1.59778e+00 -1.10271e+01 -1.33822e+01
       O  4.58088e+00 -2.59953e+00 -1.31361e+01
       H  3.18024e+00 -3.37244e+00 -1.33418e+01
       H  6.01302e+00 -3.46012e+00 -1.36233e+01
       O  4.56539e+00 -1.26142e+01 -7.68213e-01
       H  4.51793e+00 -1.44388e+01 -3.15996e-01
       H  4.34792e+00 -1.26503e+01 -2.58419e+00
       O  2.95876e-01 -5.17107e+00 -7.47530e-01
       H  3.73624e-01 -6.92834e+00 -3.52422e-01
       H -5.07232e-02 -5.02052e+00 -2.46968e+00
       O  3.96522e+00 -1.21412e+01 -6.23626e+00
       H  2.50679e+00 -1.11351e+01 -6.68252e+00
       H  5.80207e+00 -1.09680e+01 -6.67319e+00
       O -2.71660e-01 -4.82331e+00 -6.28398e+00
       H -1.88033e+00 -3.71310e+00 -6.67669e+00
       H  1.41335e+00 -3.97181e+00 -6.96938e+00
       O -2.32500e-01 -9.59751e+00 -7.69263e+00
       H -1.23044e-01 -9.78491e+00 -9.46830e+00
       H -2.91423e-01 -7.72283e+00 -7.37146e+00
       O  3.96901e+00 -2.24164e+00 -7.69058e+00
       H  4.02393e+00 -1.95499e+00 -9.32737e+00
       H  3.86674e+00 -4.27873e-01 -7.02151e+00
       O  2.80103e-01 -9.98567e+00  6.70999e-01
       H -1.12387e+00 -1.09889e+01  2.49921e-01
       H  1.82317e+00 -1.10474e+01  4.08669e-01
       O  4.54016e+00 -2.55529e+00  6.70816e-01
       H  2.93338e+00 -3.65157e+00  4.65771e-01
       H  6.19829e+00 -3.74996e+00  2.67091e-01
       O  4.58920e+00 -1.24985e+01  1.30814e+01
       H  4.57414e+00 -1.45232e+01  1.37000e+01
       H  3.95610e+00 -1.27305e+01  1.13373e+01
       O  2.56137e-01 -5.19506e+00  1.30067e+01
       H  5.41289e-01 -7.04285e+00  1.34863e+01
       H  2.18758e-01 -5.16371e+00  1.12412e+01
       O  3.94991e+00 -1.21341e+01  7.50015e+00
       H  2.52023e+00 -1.12854e+01  7.35622e+00
       H  5.52517e+00 -1.10726e+01  7.10367e+00
       O -1.95620e-01 -4.74176e+00  7.56232e+00
       H -1.72091e+00 -3.72114e+00  7.28902e+00
       H  1.12496e+00 -3.60922e+00  7.39413e+00
       O -2.62352e-01 -9.57041e+00  6.14244e+00
       H -1.11710e-01 -9.26099e+00  4.20130e+00
       H -4.60058e-01 -7.63315e+00  6.88032e+00
       O  3.99128e+00 -2.27337e+00  6.06981e+00
       H  4.31853e+00 -2.06879e+00  4.31433e+00
       H  4.03048e+00 -3.86346e-01  6.64860e+00
       O  2.74655e-01  4.77939e+00 -1.31287e+01
       H -1.18653e+00  3.93327e+00 -1.37124e+01
       H  1.62203e+00  3.56753e+00 -1.37405e+01
       O  4.56396e+00  1.22420e+01 -1.31284e+01
       H  3.33202e+00  1.10138e+01 -1.35994e+01
       H  6.05368e+00  1.12545e+01 -1.36783e+01
       O  4.49007e+00  2.21524e+00 -7.56771e-01
       H  4.50095e+00  6.15969e-01 -2.29636e-01
       H  4.37757e+00  2.15496e+00 -2.42479e+00
       O  2.47418e-01  9.56733e+00 -8.03060e-01
       H  4.63102e-01  7.76754e+00 -1.25934e-01
       H  1.67038e-01  9.59170e+00 -2.68496e+00
       O  3.99651e+00  2.60912e+00 -6.26273e+00
       H  2.56814e+00  3.48548e+00 -6.41928e+00
       H  5.45767e+00  3.49930e+00 -6.77707e+00
       O -2.59243e-01  9.99730e+00 -6.23965e+00
       H -1.74012e+00  1.10958e+01 -6.47063e+00
       H  1.50680e+00  1.09029e+01 -6.80822e+00
       O -2.93211e-01  5.19463e+00 -7.71757e+00
       H  1.21194e-01  5.25020e+00 -9.31705e+00
       H -5.25578e-02  7.14426e+00 -7.19561e+00
       O  3.90443e+00  1.25284e+01 -7.67616e+00
       H  4.16848e+00  1.23369e+01 -9.52465e+00
       H  4.02585e+00  1.42796e+01 -7.23577e+00
       O  2.88947e-01  4.76265e+00  6.77433e-01
       H -1.05096e+00  3.66645e+00  8.94692e-02
       H  1.74112e+00  3.50226e+00  3.22873e-01
       O  4.52057e+00  1.21424e+01  6.35485e-01
       H  3.22738e+00  1.09770e+01  1.54410e-01
       H  6.15024e+00  1.12367e+01  4.47363e-01
       O  4.52024e+00  2.15442e+00  1.30481e+01
       H  4.63465e+00  2.32381e-01  1.37147e+01
       H  4.48237e+00  2.03042e+00  1.12851e+01
       O  2.57938e-01  9.55698e+00  1.30994e+01
       H  3.99172e-01  7.95525e+00  1.37948e+01
       H  1.73889e-01  9.35015e+00  1.11346e+01
       O  4.00646e+00  2.56094e+00  7.59428e+00
       H  2.44994e+00  3.24669e+00  7.20404e+00
       H  5.35933e+00  3.59856e+00  7.15970e+00
       O -3.27358e-01  9.93448e+00  7.56240e+00
       H -1.94726e+00  1.07496e+01  7.30461e+00
       H  1.18408e+00  1.08526e+01  7.05114e+00
       O -3.61707e-01  5.15826e+00  6.13078e+00
       H -1.63181e-01  5.14124e+00  4.53834e+00
       H -4.81217e-01  6.96888e+00  6.65590e+00
       O  3.95662e+00  1.25168e+01  6.11496e+00
       H  4.13158e+00  1.28251e+01  4.34797e+00
       H  4.14800e+00  1.44860e+01  6.89734e+00
192
# CELL(abcABC):   16.99620    29.43815    27.67315    90.00000    90.00000    90.00000  Step:          30  Bead:      14 positions{atomic_unit}  cell{atomic_unit}
       O -8.24324e+00 -9.96816e+00 -1.31335e+01
       H  7.00021e+00 -1.07702e+01 -1.36983e+01
       H -6.92143e+00 -1.12716e+01 -1.36618e+01
       O -4.00442e+00 -2.57880e+00 -1.31464e+01
       H -5.30957e+00 -3.67186e+00 -1.35394e+01
       H -2.41977e+00 -3.54611e+00 -1.35764e+01
       O -3.94402e+00 -1.25507e+01 -7.87119e-01
       H -4.09902e+00 -1.41415e+01 -1.65382e-01
       H -4.41976e+00 -1.26293e+01 -2.55996e+00
       O -8.15880e+00 -5.20512e+00 -7.94861e-01
       H -8.40447e+00 -6.73353e+00 -1.50195e-01
       H -8.36050e+00 -4.92624e+00 -2.64712e+00
       O -4.46109e+00 -1.21813e+01 -6.22303e+00
       H -6.07318e+00 -1.11833e+01 -6.57571e+00
       H -3.10689e+00 -1.13501e+01 -6.79923e+00
       O  8.22532e+00 -4.80705e+00 -6.33311e+00
       H  6.71142e+00 -3.92605e+00 -6.74577e+00
       H -7.27204e+00 -3.71011e+00 -7.01150e+00
       O  8.17159e+00 -9.48742e+00 -7.58957e+00
       H  8.59105e+00 -9.51616e+00 -9.33748e+00
       H  8.08150e+00 -7.48451e+00 -6.98343e+00
       O -4.54541e+00 -2.15366e+00 -7.75622e+00
       H -4.26345e+00 -2.02560e+00 -9.59475e+00
       H -4.61935e+00 -2.74636e-01 -7.23910e+00
       O -8.19470e+00 -9.90116e+00  6.67801e-01
       H  7.36872e+00 -1.08846e+01  2.02096e-01
       H -6.76480e+00 -1.07617e+01  1.95167e-01
       O -3.94969e+00 -2.66694e+00  6.89503e-01
       H -5.54758e+00 -3.58910e+00  5.25872e-01
       H -2.70113e+00 -3.75280e+00  5.01667e-01
       O -3.94756e+00 -1.24928e+01  1.30704e+01
       H -3.85724e+00 -1.46000e+01  1.34855e+01
       H -4.03915e+00 -1.26305e+01  1.11318e+01
       O -8.16136e+00 -5.12670e+00  1.30279e+01
       H -7.86138e+00 -7.14261e+00  1.37841e+01