192
# CELL(abcABC):   16.99620    29.43815    27.67315    90.00000    90.00000    90.00000  Step:           0  Bead:       4 velocities{atomic_unit}  cell{atomic_unit}
       O  3.77878e-04  2.76233e-04  1.02708e-03
       H -1.52370e-03 -1.20320e-03  5.96695e-03
       H  5.04133e-03 -1.57051e-03 -1.45104e-03
       O -1.08164e-03 -5.42825e-04 -3.51255e-04
       H  1.31536e-03  4.21888e-03  6.33810e-03
       H  5.22732e-03 -1.45737e-03  4.40319e-03
       O -9.26904e-04 -4.69036e-04 -5.58306e-04
       H -5.11341e-03  4.86792e-03 -8.47182e-03
       H -4.00010e-04 -6.61802e-03  2.51108e-03
       O -5.82688e-04  3.52779e-04 -4.98662e-04
       H -6.55914e-04 -2.36063e-03 -3.37558e-03
       H -4.25656e-03  2.95789e-03  4.67332e-04
       O  1.21053e-03  2.55288e-04  5.64710e-04
       H -6.38962e-03  3.20181e-03 -3.25298e-03
       H  5.17705e-03  2.27175e-03 -1.22308e-04
       O  2.17781e-04  4.38914e-04 -3.28021e-05
       H  2.59361e-03  2.06846e-03  3.34099e-03
       H  1.62804e-03 -1.43889e-03  1.08519e-03
       O  1.16439e-03 -6.71039e-04 -2.01507e-03
       H  2.63479e-03  1.10597e-03 -6.38689e-03
       H  2.79636e-03  4.53185e-04 -1.31493e-03
       O  3.64965e-04  6.59178e-04  3.85099e-04
       H -3.48914e-03  5.22248e-03 -8.19420e-04
       H  1.47321e-03 -4.31427e-04  1.44225e-03
       O  4.54275e-04  3.11221e-05  2.67234e-05
       H  2.21526e-03  2.04109e-03 -6.13427e-03
       H  7.43842e-04  1.01988e-04  4.58987e-03
       O  4.31978e-04  1.34103e-03 -7.91726e-04
       H -2.98362e-03 -1.59580e-03  3.82896e-03
       H -1.38688e-03  2.33211e-04 -1.92079e-03
       O -1.06641e-03  6.63312e-04 -5.86360e-04
       H -1.40608e-03 -9.12995e-04 -1.98538e-03
       H -1.87884e-03  1.21297e-04 -9.38151e-04
       O  1.70277e-03  1.13673e-04 -1.00295e-03
       H -8.44912e-04 -1.22703e-03  7.53394e-03
       H -7.32976e-04 -7.45635e-03  1.92348e-03
       O -2.72791e-04 -1.66671e-04 -6.90761e-04
       H  2.75430e-03  2.99743e-03 -1.30686e-03
       H  3.93122e-03  6.05907e-03  7.76852e-03
       O -1.15073e-04  2.11061e-04 -7.27155e-04
       H  7.96569e-04 -2.87481e-04  7.93646e-03
       H -6.53104e-04  6.14060e-03  6.53178e-04
       O -1.19429e-04  7.26018e-04  1.74067e-04
       H  2.25260e-03 -3.46433e-04  2.19417e-03
       H -3.48900e-03  9.30289e-04  5.66406e-03
       O -9.77442e-05  3.56688e-04 -2.81573e-04
       H  3.37534e-03  2.78695e-03  4.39698e-04
       H -3.63962e-04 -5.02968e-03  1.11944e-03
       O  1.57077e-03  6.21138e-04 -1.15820e-03
       H -6.15501e-03  3.24586e-03 -3.51030e-03
       H -2.47092e-03 -8.91082e-04 -2.38424e-03
       O -1.21169e-03 -1.78053e-04 -1.18250e-03
       H  5.88288e-03 -1.20526e-03  3.43338e-04
       H  8.90559e-04 -2.70531e-03 -4.57005e-03
       O  6.58126e-04  2.97808e-04  1.28292e-04
       H -9.45748e-05  1.91331e-03 -1.14409e-03
       H  1.88674e-03 -5.37467e-03 -3.70013e-03
       O -2.69214e-04  8.69498e-04  1.24728e-03
       H  4.56678e-03 -3.25762e-03 -2.11838e-03
       H  4.70568e-04 -3.10392e-04  4.64582e-04
       O -3.62839e-05 -5.73859e-04 -2.35344e-04
       H -2.79502e-03  3.21213e-03 -4.42642e-03
       H  1.83833e-03 -5.66023e-03 -6.08613e-03
       O -6.66078e-05 -3.72490e-04  7.54992e-04
       H  8.98908e-04  1.57893e-03  1.24984e-03
       H  8.97956e-04  1.51875e-03  8.67750e-04
       O  1.06930e-03  1.04843e-05 -8.21521e-04
       H  1.50057e-03 -6.35927e-03  4.03351e-03
       H  5.28549e-05 -5.91141e-04 -8.39251e-04
       O  6.72627e-04  1.49984e-04  5.13229e-04
       H  1.05746e-03  3.63498e-04  8.82422e-03
       H  2.96862e-03  2.20640e-04 -8.45499e-04
       O -1.53247e-03 -9.57088e-04  1.15314e-03
       H  5.48147e-03  3.41719e-03 -6.29131e-05
       H  3.25813e-03  4.99861e-03  3.25088e-03
       O -1.35886e-04 -1.28284e-03 -5.26760e-04
       H  1.95001e-03  1.08981e-03 -3.69568e-03
       H -7.61996e-04  2.44629e-03  3.88052e-03
       O  6.20130e-04 -2.07013e-04 -1.16444e-04
       H -1.27118e-03  1.39285e-03  2.98630e-03
       H -2.66104e-03  3.12597e-03 -8.45038e-03
       O -1.27060e-03 -5.89232e-06  1.27992e-03
       H  4.13143e-04  8.95206e-04  2.37745e-03
       H -8.47844e-05 -2.14577e-03  1.05994e-03
       O -2.22370e-04 -3.06195e-05  3.62531e-04
       H -4.47824e-03 -1.18850e-03  3.13794e-03
       H -2.27620e-03 -2.22489e-03 -2.79268e-03
       O -2.24660e-04 -6.30545e-04  9.17453e-04
       H -3.24970e-03 -1.53984e-03 -3.13071e-03
       H -2.39597e-03  3.72760e-03 -1.90271e-03
       O -7.02605e-04 -2.95454e-04  1.18236e-03
       H  3.56065e-03  2.38315e-03 -6.14935e-03
       H -1.85686e-03 -3.64374e-03  5.98371e-03
       O  1.14718e-03  1.10003e-03  4.98690e-04
       H -3.87011e-03 -2.20691e-03 -1.12501e-03
       H  2.74448e-03 -1.60992e-03  3.45984e-03
       O  5.53878e-04  4.89852e-04 -4.15402e-04
       H -1.93099e-03 -1.59474e-03 -1.70210e-03
       H  9.27604e-03 -2.56135e-03  1.57691e-03
       O  6.72208e-04  1.04052e-03  1.76430e-03
       H -1.38448e-03 -1.62077e-03  4.10830e-04
       H  6.48197e-04 -2.37468e-03  1.27705e-03
       O  5.43714e-04 -1.77127e-03  3.50470e-04
       H  7.54825e-03 -1.50243e-04  3.50660e-03
       H -2.86053e-03  1.46454e-03 -9.24990e-03
       O -1.87552e-04 -3.49952e-04 -2.65626e-04
       H  4.08856e-03 -2.91458e-03  6.35153e-04
       H  8.33077e-04  5.20404e-03  2.00305e-03
       O  4.72028e-04  3.71266e-04 -2.42283e-05
       H -3.01360e-03  4.94416e-03  5.70145e-03
       H  2.42350e-03  2.08162e-03 -1.59345e-03
       O -1.10382e-03 -1.06860e-04  8.21097e-04
       H -1.72543e-03  3.36874e-03 -7.93256e-03
       H -2.37893e-03 -5.98470e-04 -3.25633e-03
       O -2.97891e-05 -1.05165e-03  1.98623e-06
       H -4.11440e-03  2.28174e-03 -6.18077e-03
       H -5.67160e-04  4.95606e-03 -6.93399e-04
       O  7.50717e-05  2.43343e-05  4.34363e-04
       H  2.98664e-03 -2.72294e-03  5.20928e-03
       H -2.04783e-03  1.67430e-04 -4.76232e-03
       O -6.82558e-04  5.50662e-04  7.90997e-04
       H  5.74577e-03 -3.84763e-04  9.65285e-03
       H -1.66396e-03  2.25679e-03 -1.67826e-03
       O  1.70533e-03 -8.38024e-04  3.10537e-04
       H -9.02218e-03  3.07813e-05 -3.40196e-03
       H  4.17364e-03  3.02690e-03  1.53151e-03
       O  1.92402e-03 -6.59423e-04 -6.63789e-04
       H  4.60111e-03  1.83386e-03 -4.84150e-03
       H -3.10302e-03  7.16835e-03  2.13297e-03
       O -1.36362e-03 -3.62210e-04  1.81248e-03
       H -1.60398e-03 -2.40229e-04  7.69582e-03
       H -2.14938e-04  2.45573e-03  2.56279e-03
       O  6.49279e-04 -1.06508e-03 -2.93775e-04
       H  7.01480e-04  3.76629e-03  7.69053e-04
       H  3.25392e-04 -8.74288e-03  2.27642e-03
       O -2.67674e-04  3.72657e-04 -4.81797e-04
       H  1.06336e-02  1.35275e-03 -2.91136e-03
       H  6.24222e-03 -2.96140e-04  1.35853e-04
       O  1.98566e-04 -2.37938e-04  4.51436e-04
       H -2.19065e-03  3.27649e-03 -3.07187e-03
       H -1.34636e-03  2.20008e-03 -6.43464e-05
       O  2.17790e-03 -2.58869e-04 -6.19561e-04
       H  7.25450e-03 -1.47475e-03  6.89681e-04
       H  5.76698e-03 -1.99687e-03 -3.93660e-03
       O  4.21456e-04  1.49473e-04  2.20298e-03
       H  1.32706e-03 -2.07509e-04  5.09308e-03
       H -7.01238e-03 -3.88388e-04 -1.25507e-03
       O  2.42417e-04  8.36381e-04 -4.05957e-04
       H  5.68076e-04  3.70619e-04 -8.58566e-04
       H  1.51243e-03 -1.48199e-04 -1.80720e-03
       O -5.06469e-04 -6.71189e-04 -2.64064e-04
       H -4.34819e-03 -3.65641e-04 -2.09145e-03
       H -2.39323e-03  6.02440e-03  4.88536e-03
       O -8.87696e-04 -3.79499e-04  7.02240e-04
       H  5.60006e-04  4.15055e-03 -3.66753e-03
       H  2.44245e-03 -2.66276e-04  4.29184e-03
       O -1.72323e-03  2.63454e-04  8.50223e-04
       H -9.00900e-04  1.22740e-03  5.01361e-03
       H -2.64656e-04 -3.13720e-03  2.44570e-03
       O  1.02952e-03 -1.03958e-03 -5.59601e-04
       H  5.75031e-03  1.15824e-03  4.50137e-03
       H  1.68872e-03 -5.13771e-03 -1.25783e-03
       O -7.08868e-04  6.02138e-04  1.67712e-04
       H -2.69702e-03  1.73988e-03  2.84211e-03
       H  3.42615e-03  1.00272e-03  2.64398e-03
       O -5.38955e-04  5.30644e-04 -1.42127e-03
       H  4.75373e-03  5.10851e-03 -5.42672e-04
       H -4.88736e-03  2.80229e-03 -4.05863e-03
       O  1.09768e-03 -1.54279e-04  7.45502e-04
       H  2.10829e-03 -1.88227e-04  3.12377e-03
       H -1.09600e-03 -4.88908e-03  1.03708e-03
       O -1.07496e-04 -1.07053e-03  5.19339e-04
       H  6.22719e-03  1.13638e-03  2.75425e-04
       H  8.82164e-03  5.20092e-03 -3.78357e-04
       O -6.57164e-04  6.52884e-04 -4.64895e-06
       H  5.03069e-03  4.76172e-03  6.80758e-04
       H  1.10815e-03 -6.33143e-03  1.26343e-03
       O -1.04605e-03 -6.62918e-04 -2.25986e-04
       H -6.20987e-04 -6.11993e-03  3.19238e-03
       H -4.58333e-03  5.15382e-04  2.58996e-03
       O  8.17987e-04  9.41420e-04  3.89995e-04
       H -1.96226e-03 -3.79892e-03  1.73161e-03
       H -4.39173e-03 -1.37044e-03  5.50631e-03
       O  3.94695e-04 -3.43259e-04  1.46841e-03
       H  4.68635e-04  2.34809e-03  8.14406e-04
       H  3.79661e-03 -3.16654e-03  1.05566e-03
       O  1.05114e-03 -1.23505e-03 -3.15063e-04
       H -3.81393e-03  5.21175e-03 -4.13924e-04
       H  7.30011e-03  3.34837e-03  5.15992e-03
       O  3.51858e-04 -3.95995e-04  7.93975e-04
       H  2.06474e-03  5.74674e-03 -4.89595e-03
       H -1.93370e-03 -1.22531e-03 -6.37742e-03
192
# CELL(abcABC):   16.99620    29.43815    27.67315    90.00000    90.00000    90.00000  Step:          10  Bead:       4 velocities{atomic_unit}  cell{atomic_unit}
       O  3.29989e-04  2.41212e-04 -6.11592e-04
       H  3.71951e-04 -3.46990e-03 -6.16908e-03
       H  4.27336e-03 -7.81510e-03  3.14602e-03
       O  9.43728e-04  6.71495e-04  7.94075e-04
       H -2.63851e-03 -4.48326e-03 -1.07650e-03
       H  1.22017e-04 -1.18300e-03  7.35648e-04
       O -4.84773e-04  1.03802e-03 -5.64109e-04
       H  1.01785e-05  1.77808e-03 -3.76722e-03
       H  3.99749e-03  1.47599e-03  5.33916e-04
       O -2.84865e-04 -6.62647e-05  3.45070e-04
       H  1.23568e-03 -1.51423e-03 -3.47411e-03
       H -6.53816e-03 -4.40229e-03  1.62948e-03
       O  4.20011e-04  1.92322e-03 -1.17985e-03
       H -4.46473e-03 -4.84561e-03  5.65643e-04
       H  7.76298e-04  1.98901e-03 -2.45972e-03
       O  4.93811e-05  2.09500e-03 -4.26298e-04
       H -3.58570e-03  3.78133e-03  3.24325e-03
       H -7.65439e-03 -2.62714e-03 -3.02645e-03
       O -7.12525e-04 -3.87447e-04 -7.39295e-04
       H -1.88477e-03  1.41328e-03  1.26768e-03
       H  7.68345e-03  1.22154e-03  2.59787e-03
       O  5.27402e-04 -1.15305e-03 -9.78969e-04
       H  3.19399e-03 -2.39583e-03 -2.93376e-04
       H -4.15407e-03 -7.09608e-03 -3.13877e-03
       O -6.57011e-04  7.76677e-04  3.38566e-04
       H -8.88548e-03  3.26789e-04  5.32519e-03
       H -1.22394e-03  1.48871e-03  8.96497e-04
       O  7.16191e-04 -7.39224e-04 -1.25608e-04
       H  1.43244e-03  3.43553e-03  1.42789e-03
       H  2.59119e-03  2.45176e-04 -1.83153e-03
       O  1.03536e-03  4.99020e-04  1.03735e-03
       H -7.50704e-03 -9.43129e-05 -1.00339e-04
       H  6.03923e-03 -5.81006e-03  4.66926e-03
       O  3.22104e-05  7.89284e-04  1.41549e-03
       H  7.91553e-04 -1.64209e-03  4.70376e-03
       H  6.29566e-03 -3.26271e-04  3.14900e-03
       O  7.21299e-04  1.32054e-03  5.73870e-04
       H -6.08014e-04  5.81865e-04 -7.36073e-04
       H -3.25504e-03 -2.48657e-03  2.40410e-03
       O -2.78733e-04 -5.26181e-04  4.70123e-04
       H  7.18830e-03  2.96632e-03 -4.07466e-04
       H  2.24053e-03 -5.39070e-03  1.79506e-03
       O -3.37048e-04 -9.78711e-04  2.09340e-04
       H  3.59558e-03  3.63749e-03 -4.24823e-03
       H -1.87829e-03 -6.95795e-03  6.65458e-03
       O  5.04324e-04 -3.12883e-04 -5.74848e-04
       H -7.55834e-03  3.51998e-03  9.03539e-03
       H  2.60565e-03 -1.35797e-03  1.20657e-02
       O  7.26072e-04 -1.54383e-03 -1.22192e-03
       H  2.87152e-03  2.49930e-03  6.86531e-03
       H -1.04693e-03  5.88338e-03  1.24928e-04
       O -3.22328e-04  1.48286e-03 -8.98128e-04
       H  3.27137e-03  1.05199e-03 -1.40323e-03
       H  1.51149e-03 -5.27246e-04 -4.89826e-04
       O  7.07680e-04 -1.16967e-03 -8.74125e-04
       H -2.37294e-04 -1.85661e-03 -3.57954e-03
       H -1.40418e-03 -1.43270e-03 -3.71703e-03
       O -8.98754e-04 -2.32986e-04 -6.92146e-04
       H  2.20797e-03  3.56910e-03  2.75514e-04
       H -5.31454e-03  4.03661e-03  3.18745e-03
       O -7.34911e-04 -1.89818e-04  4.33793e-04
       H  5.38516e-03 -5.02876e-03  5.33764e-03
       H  2.32863e-03  2.50343e-03 -4.03578e-03
       O -5.56682e-04  8.34780e-04  2.28774e-04
       H -4.40138e-03 -2.04146e-03  3.98007e-03
       H -2.35935e-03 -9.34281e-04 -4.48451e-03
       O -6.20753e-04 -9.13371e-04  4.86361e-04
       H  2.38165e-04  5.46985e-03  2.14277e-03
       H -2.18374e-03  4.05611e-03  2.92209e-03
       O  3.27195e-04 -1.40192e-04 -4.02028e-04
       H -4.78442e-03  1.65285e-03  1.10821e-05
       H -3.10817e-03  3.73436e-03  2.30105e-03
       O  1.25456e-04  1.14359e-03  9.02527e-05
       H -1.19454e-03 -3.39197e-03  2.70020e-03
       H -4.83485e-03  1.27873e-03 -4.67571e-03
       O -4.04184e-04  8.11641e-04 -1.64048e-03
       H -2.49190e-03 -3.41538e-03  1.91116e-03
       H  4.92449e-03  5.42678e-04  3.60463e-03
       O -5.17523e-04 -2.57231e-04  3.16852e-04
       H -2.14890e-03  7.47326e-04 -3.68363e-03
       H -5.32327e-04  2.21973e-03  1.76433e-04
       O -8.21615e-05  1.34450e-04  5.90373e-04
       H  3.29641e-03  1.26926e-03  2.64623e-03
       H  9.54761e-04  1.64308e-03 -5.72830e-03
       O  7.67548e-04 -1.39427e-04  9.14525e-04
       H  8.04133e-04 -8.81950e-04 -3.49535e-03
       H -1.53304e-03  1.45730e-03  5.77566e-03
       O -1.77791e-04 -1.63060e-04  4.91261e-04
       H  3.88689e-03  2.20869e-03  2.63252e-03
       H -1.73992e-03 -2.30498e-03 -1.02567e-03
       O -4.84468e-04  1.74485e-03  5.01230e-04
       H  2.16150e-03  9.86735e-04 -2.51312e-03
       H  1.20396e-03  5.15191e-03  8.85646e-03
       O -1.01502e-03 -3.08500e-04  7.06943e-04
       H  6.74349e-05 -4.86315e-03 -1.73324e-03
       H  2.27619e-03 -2.66622e-04  2.33528e-05
       O -3.58036e-04 -6.84386e-04  2.08037e-05
       H  3.69291e-03 -1.79876e-03  2.75314e-03
       H -1.42633e-03 -1.43266e-03 -1.87298e-03
       O -2.52705e-03  8.72571e-04 -2.60125e-04
       H -3.15875e-03 -2.82027e-03 -2.28435e-03
       H -4.81594e-04 -5.69271e-04 -4.65566e-04
       O  7.57597e-04  8.81943e-05 -8.88601e-04
       H  1.01171e-03 -1.83791e-03  2.50491e-03
       H -1.12073e-03  3.00175e-04  6.73226e-04
       O -8.55186e-04 -7.22193e-04 -2.55434e-04
       H -5.24170e-03 -5.60494e-03  5.74089e-04
       H  4.46051e-03  3.05431e-03  1.75998e-03
       O -5.88792e-04 -3.69554e-04 -1.31705e-03
       H  1.55792e-03 -2.06238e-04  4.90780e-03
       H -3.87192e-03 -3.75963e-03 -1.79284e-03
       O -1.18435e-03 -6.47272e-04 -5.77294e-04
       H -9.34277e-05 -7.51551e-04 -3.65050e-04
       H -2.38639e-03 -5.03871e-03  4.93388e-04
       O  3.55192e-04 -4.16473e-04  1.26122e-04
       H  4.39711e-03 -7.90232e-05  5.47006e-03
       H  2.47095e-03 -3.47406e-03 -1.61320e-03
       O  2.33050e-05 -6.82838e-04  1.36597e-04
       H -1.56751e-04 -8.83544e-03  3.65184e-03
       H  4.88866e-03 -2.72809e-05 -6.50480e-04
       O -6.29426e-04 -6.22898e-04 -1.52976e-04
       H  5.78756e-03  4.82156e-03 -2.94066e-03
       H  4.13741e-03  4.99496e-04  5.91090e-03
       O  1.49266e-03 -5.60665e-04 -9.55425e-04
       H -3.49896e-03 -3.41945e-03  3.55576e-03
       H -4.19231e-03  1.96731e-03 -3.37606e-03
       O -1.17028e-03 -8.86773e-04 -8.56176e-04
       H  7.13152e-04  1.17507e-03  3.85309e-03
       H -3.57554e-03  6.60476e-03  3.46526e-03
       O -1.97937e-04 -6.40102e-04  1.54689e-03
       H -1.00778e-03 -5.83024e-03 -3.25800e-03
       H  2.56747e-03 -2.27238e-03 -5.64645e-04
       O  3.09953e-04  3.19235e-04  5.15144e-04
       H  8.52837e-03 -2.66237e-03  4.99199e-04
       H -7.24896e-03  7.64883e-04 -1.46663e-03
       O  4.18661e-04 -1.42504e-03 -5.00132e-04
       H  3.39526e-03 -1.31841e-03 -1.83766e-03
       H -2.74292e-03  2.86850e-03  6.27585e-03
       O  1.13424e-03  1.67484e-04 -9.19793e-04
       H  3.28951e-03 -2.70879e-03 -7.01759e-03
       H -3.20489e-03 -6.90151e-03 -4.24471e-03
       O  1.19165e-03 -2.60819e-04  5.10385e-04
       H -1.49742e-03 -1.83859e-03 -1.62514e-03
       H -2.86779e-03  8.87331e-04 -2.48257e-03
       O -1.80310e-03 -8.44191e-04  2.11992e-04
       H  2.68814e-03 -1.50211e-03 -6.63045e-03
       H -7.28274e-03  6.21017e-03 -7.12505e-03
       O -8.15070e-04 -4.24309e-05 -8.13344e-05
       H -7.72004e-03 -5.97589e-03 -8.51492e-03
       H  4.00543e-03 -9.71224e-04 -4.64999e-03
       O  7.71974e-04  1.08228e-05 -5.33378e-04
       H  5.24440e-03  1.56742e-04  1.23135e-03
       H  1.54094e-03 -2.01643e-03  3.78918e-03
       O  1.07406e-03 -1.28543e-03 -1.29826e-04
       H -3.33885e-03  3.48267e-03  4.80337e-03
       H  4.60976e-03  5.08867e-04 -1.80342e-03
       O -1.30724e-03  1.33918e-03  3.14117e-05
       H  4.37593e-03  5.05893e-03  4.80169e-04
       H -1.60999e-03  3.67267e-03  6.31499e-03
       O -8.97747e-05 -4.94573e-04  6.19905e-04
       H  5.75373e-04 -8.39721e-03 -2.22590e-03
       H -4.82389e-03 -1.46047e-03  2.66440e-03
       O -6.79110e-04 -1.95317e-04 -9.01041e-04
       H -2.04269e-03 -3.41392e-03 -1.86030e-03
       H -5.63783e-04  2.14780e-03 -3.74184e-03
       O -4.30112e-04  8.79925e-04 -1.34234e-03
       H  4.11625e-03  1.87292e-03 -2.03740e-03
       H  7.14844e-04 -1.94098e-03 -5.00582e-04
       O  3.52004e-04 -5.82832e-04  1.48026e-03
       H  3.15790e-03 -4.41710e-03 -5.26604e-03
       H -6.72778e-03 -1.31269e-03 -2.64058e-03
       O -7.06011e-04 -2.05853e-04  5.71271e-04
       H  1.44110e-03  2.55067e-03  1.12936e-03
       H  3.82364e-03 -1.54725e-03 -1.51646e-03
       O -7.41266e-04  1.00008e-03 -1.92257e-04
       H  4.49953e-05  4.84569e-04  4.13490e-03
       H -4.00418e-03  1.55897e-03 -1.50232e-03
       O -2.35791e-04 -8.60167e-04 -9.89282e-05
       H  2.59757e-03  1.37683e-03 -1.93449e-03
       H -4.70330e-03 -1.73113e-03  4.53663e-04
       O  9.88353e-05  1.31517e-04  8.67791e-04
       H -2.32627e-03 -4.31518e-04  5.59616e-03
       H  8.34127e-04  1.07061e-03 -1.14455e-03
       O -3.82603e-04  3.14134e-04  1.01883e-03
       H  4.62513e-03 -2.41401e-03  4.16732e-03
       H -1.04746e-03 -5.54542e-04 -1.41424e-03
       O -1.04478e-03 -6.53093e-04  5.40301e-04
       H  4.42576e-03 -3.21038e-03 -3.12610e-03
       H -2.81353e-03  3.09622e-03 -1.70387e-03
       O  5.33410e-04 -1.00404e-04  6.91567e-04
       H  7.77328e-04  1.02740e-03 -1.65887e-03
       H -2.24847e-03  3.92193e-03 -1.11523e-04
192
# CELL(abcABC):   16.99620    29.43815    27.67315    90.00000    90.00000    90.00000  Step:          20  Bead:       4 velocities{atomic_unit}  cell{atomic_unit}
       O -3.95804e-05 -4.44846e-04  3.70449e-04
       H  5.90249e-03  5.00750e-03  4.75306e-04
       H  4.52786e-03  2.08512e-03 -1.03343e-03
       O  5.46061e-04 -7.18749e-04 -3.65267e-04
       H -3.44607e-03  4.98124e-03 -6.09146e-03
       H  2.38151e-03 -3.30570e-03 -4.07930e-03
       O -9.32290e-04 -7.59124e-04  1.02329e-03
       H  3.47834e-03  1.41893e-03  1.75653e-03
       H  7.96092e-03  1.60459e-03  4.39214e-04
       O  1.65659e-03 -1.47044e-03 -1.63628e-03
       H  9.55123e-04 -3.17970e-03  2.18865e-03
       H -3.18454e-03 -1.00516e-03  3.00130e-03
       O  1.31579e-03 -2.53113e-04 -4.81488e-04
       H -1.26897e-03 -2.61912e-03  9.26827e-06
       H  1.01093e-03  2.25418e-03 -1.62795e-03
       O  4.15021e-04  9.17354e-04 -7.29814e-04
       H  4.16946e-03  2.07797e-03  6.43807e-04
       H -7.77756e-03  1.88098e-03 -1.28069e-03
       O  4.83098e-04  6.25028e-04  2.94970e-04
       H -1.10876e-03 -2.19698e-03 -6.03630e-05
       H -3.57282e-03 -1.88295e-03  8.30797e-04
       O -1.00780e-03  3.28821e-05 -5.22928e-05
       H -3.64443e-03 -4.18562e-03  5.33437e-03
       H -3.81735e-03  3.40467e-04 -1.98343e-03
       O  4.24691e-04  1.10751e-03 -3.91082e-04
       H -2.63179e-03  2.64287e-04 -3.71100e-03
       H -1.36098e-03  1.43573e-03 -2.51846e-03
       O -6.14372e-05 -5.44374e-04  5.89768e-04
       H -2.21188e-03 -4.66251e-03  7.37591e-04
       H -1.80836e-03 -3.02450e-03  2.16262e-03
       O  1.86127e-03  4.06884e-04  1.84413e-03
       H -2.02830e-03  2.98466e-03 -4.34694e-03
       H -3.92477e-03 -2.02105e-03  4.03983e-03
       O  9.24543e-04 -1.40213e-03  1.13625e-03
       H -2.40324e-03 -1.41600e-03  3.48873e-03
       H  4.60178e-05 -9.41130e-04  2.99544e-03
       O  1.30263e-03 -1.45079e-03 -1.10956e-03
       H -4.72176e-03  1.46383e-03 -7.48507e-04
       H  1.76848e-03 -2.97044e-03  9.80478e-03
       O -1.69684e-04  1.43699e-04 -1.48936e-05
       H -2.55788e-03 -3.03938e-03  3.06109e-03
       H -4.70436e-03 -2.51381e-03 -2.82696e-03
       O  2.90319e-04  9.11412e-04 -3.00085e-04
       H -2.72086e-04 -4.96871e-03 -2.69189e-03
       H -4.60512e-03  9.31247e-04  8.34190e-04
       O -1.81164e-03 -4.20267e-04  1.52993e-03
       H  2.53161e-03 -2.95080e-03  1.20543e-03
       H  3.07218e-04  1.53846e-03  5.87448e-04
       O -5.68142e-04 -3.89373e-04 -2.23909e-04
       H -3.63418e-04 -2.99677e-03 -1.00119e-03
       H  5.02897e-04 -7.25365e-04 -3.91045e-04
       O -5.06124e-04  4.44128e-04  9.20682e-04
       H -4.40379e-04  2.82362e-03  3.58931e-03
       H -4.38936e-03  3.94007e-03  1.82309e-03
       O  1.76640e-03 -1.67774e-04  1.08646e-03
       H -3.75523e-03 -5.20599e-04  5.81916e-04
       H -4.79813e-03 -1.34836e-03  3.29073e-03
       O  5.88830e-04 -1.59343e-04  2.75264e-04
       H  2.72941e-03  3.13872e-03  2.50589e-03
       H -2.65655e-03 -3.10264e-03  2.79945e-04
       O -3.29983e-04 -3.26539e-04  4.85743e-04
       H  6.14723e-03  1.73260e-03 -6.00782e-04
       H -4.29185e-03 -1.02724e-03  1.52359e-04
       O -1.36029e-03 -6.19600e-04  7.87022e-04
       H -3.46259e-03  1.64956e-03 -2.19756e-03
       H -8.75208e-04  6.62917e-03 -6.31217e-03
       O -4.82748e-05  2.31559e-04  5.24794e-04
       H -5.93054e-04 -3.71119e-03 -1.27211e-03
       H -5.21568e-04  5.97302e-03 -4.83300e-03
       O  8.37643e-04  9.19881e-04  7.67417e-04
       H -8.64158e-03 -1.93003e-03 -1.85039e-03
       H -1.32138e-03 -1.38180e-03 -2.74509e-03
       O -1.32256e-03 -1.52124e-03 -1.22817e-03
       H  1.42811e-03  7.63572e-03 -7.57985e-03
       H -2.41491e-03 -5.72856e-04  5.99050e-03
       O  3.24916e-04 -3.02499e-04  1.39020e-03
       H -1.20992e-03 -2.44028e-03  9.14780e-03
       H  5.44096e-03 -6.33189e-04  2.76351e-03
       O -1.29827e-03 -5.73269e-04 -1.01163e-03
       H -3.14391e-03  1.44802e-03  9.16686e-04
       H -4.21408e-03  2.38094e-03 -2.68715e-03
       O -2.33818e-05 -7.41429e-04 -8.64458e-04
       H  5.53044e-04 -7.26954e-05 -5.59298e-03
       H  1.00324e-03  1.52374e-03  1.35766e-03
       O  9.08834e-04 -7.00329e-04 -8.88539e-04
       H -1.45779e-03  2.14828e-03  5.48666e-03
       H -3.74753e-03 -6.59861e-03  7.94794e-04
       O -5.32447e-04  4.32116e-04 -1.84366e-04
       H -3.88896e-03  5.00700e-03 -3.21748e-03
       H  4.48658e-03 -3.15018e-03  4.22474e-03
       O -7.54535e-04 -9.71563e-04 -1.15399e-03
       H -1.08709e-03  4.70885e-03  3.32408e-05
       H -4.31345e-03  3.16629e-03 -4.99873e-03
       O -1.19209e-03 -3.02345e-04  4.13541e-05
       H -1.04124e-03 -6.25112e-03 -5.27477e-04
       H -2.95563e-03  2.23975e-03 -7.70927e-03
       O -2.05213e-04 -7.21578e-04 -2.53230e-04
       H -2.27099e-04 -4.40014e-03 -2.91233e-03
       H  3.14335e-03  4.69323e-03 -1.12245e-04
       O -1.48568e-04  1.26590e-03  3.03007e-04
       H -1.15992e-03  4.02687e-03  3.26195e-03
       H  4.44312e-03 -7.99315e-04  2.15708e-03
       O -5.95255e-04 -7.09373e-05 -4.58885e-04
       H -4.17948e-03  1.25942e-03 -4.85476e-03
       H -1.97184e-03 -1.82370e-03 -1.91243e-03
       O -9.72001e-04  8.16582e-04  1.50316e-04
       H -4.13328e-03 -3.49208e-03 -8.98280e-04
       H  2.71806e-03  6.63631e-05 -7.48460e-04
       O -5.25436e-04 -7.11899e-05  4.59959e-04
       H -3.14194e-03 -3.36381e-03  1.86435e-03
       H -1.79958e-03 -9.13643e-03 -7.35014e-03
       O  1.42094e-04  9.77624e-04  7.19340e-04
       H  2.56140e-04  8.45151e-04 -3.05177e-03
       H  2.02701e-03 -3.45530e-04 -2.75675e-03
       O -2.44903e-03  9.22375e-04 -9.40253e-04
       H -2.63248e-03  1.33611e-03  3.19476e-03
       H -2.92372e-03  7.64408e-04 -3.28894e-03
       O -7.15459e-04 -3.45802e-04 -1.39265e-03
       H -3.31729e-03  2.80412e-04 -1.65724e-04
       H  2.35434e-03  3.39289e-03 -4.52572e-04
       O  4.73088e-04 -2.44568e-04  1.13696e-05
       H  5.55592e-03  1.17166e-03 -2.46366e-03
       H -3.03860e-03 -6.00170e-03 -5.79199e-03
       O  1.11079e-03 -7.44019e-04  1.00190e-04
       H -1.59210e-03 -2.28447e-03  6.51591e-03
       H -1.52420e-03 -3.46782e-03 -1.54703e-03
       O  1.20710e-04  6.47438e-04  1.51584e-03
       H  1.56484e-04  4.63385e-03  3.23852e-03
       H  1.41291e-03 -9.66371e-03  2.08361e-03
       O -1.26374e-04  2.14586e-04  1.29393e-04
       H  4.15522e-04  4.46168e-03 -2.48584e-03
       H  1.58263e-03  5.15057e-03 -7.89188e-03
       O -2.03681e-04  2.28105e-04  3.83599e-04
       H -1.46462e-03  1.81531e-03  2.33960e-03
       H  1.69062e-04 -9.97800e-04 -6.52399e-04
       O  4.30101e-04 -3.69625e-04 -2.19462e-03
       H -4.50165e-03  2.52574e-03  9.95507e-04
       H  3.03267e-04  4.54711e-03 -4.25203e-05
       O -8.17183e-04 -7.24870e-04  3.59911e-05
       H -1.98539e-03 -1.69603e-03 -2.82712e-03
       H  7.22782e-03 -9.57075e-06 -2.40071e-03
       O -2.87828e-04  1.13015e-03 -1.29675e-04
       H  6.47066e-03  6.71213e-03  4.45240e-03
       H  1.30507e-03 -8.08396e-04  5.54324e-04
       O -9.21424e-04  2.89562e-04  8.03535e-05
       H -1.58952e-03  3.72558e-03 -3.92081e-03
       H  1.54483e-04  1.01938e-03  2.05999e-03
       O -1.57551e-05 -7.95206e-04 -1.88314e-03
       H  7.65423e-03 -4.37878e-04  2.97866e-04
       H -5.21461e-03  5.14458e-04 -1.61088e-04
       O  1.68825e-03  3.30306e-05  5.96329e-04
       H  1.63395e-03 -8.17673e-04 -6.41502e-04
       H -1.51067e-03 -2.07939e-03 -7.89816e-03
       O -6.25897e-04 -3.85006e-04  1.03718e-04
       H  1.16853e-03 -3.34731e-05 -1.02032e-03
       H -2.40563e-03  6.51637e-03  3.83596e-03
       O  4.91641e-05 -1.24152e-03  1.12470e-03
       H -5.18375e-04 -4.89432e-03  1.01024e-03
       H -1.65280e-03  3.15986e-03 -1.96860e-03
       O  5.67784e-04 -1.02525e-03 -2.33690e-03
       H -2.73808e-03 -2.87213e-03  2.54086e-03
       H  2.12889e-03  2.42607e-03 -2.47845e-03
       O -1.36229e-03 -1.25226e-03  3.32751e-04
       H -1.25853e-03  4.48896e-03 -2.45175e-03
       H -5.98108e-04  2.43225e-03  2.57905e-03
       O  9.77056e-04  3.95593e-04 -7.47130e-04
       H  4.34640e-04 -4.37925e-03  1.28517e-03
       H  2.96990e-03  1.47930e-03  2.42443e-03
       O  3.60425e-04  8.13677e-04 -1.37857e-03
       H -1.67967e-03 -1.87229e-03 -5.24090e-04
       H  3.57710e-03 -1.49190e-03 -4.84399e-03
       O -1.05382e-03  1.96729e-04  2.23604e-03
       H  3.12163e-03 -1.76117e-03  3.73804e-03
       H  4.83117e-03  3.47317e-03 -3.47498e-04
       O  2.45297e-04  1.46548e-03  1.05546e-03
       H -3.40756e-03  1.84763e-03  8.70901e-04
       H  9.85948e-04  3.13377e-03 -1.48451e-03
       O -1.51408e-05  3.46036e-04 -6.56682e-04
       H  1.89051e-03  7.32323e-04 -2.77965e-03
       H  9.81252e-04 -1.08154e-03 -3.27879e-03
       O -5.67196e-04  3.44628e-04 -1.79593e-05
       H -3.13893e-03 -3.40832e-03 -3.39923e-03
       H -4.92345e-03 -4.24023e-03 -5.69048e-03
       O  8.56921e-05 -5.00700e-04  8.42693e-04
       H  9.50739e-04 -5.16231e-03  5.46466e-03
       H  4.17575e-03 -1.01183e-03 -8.06978e-03
       O -3.58830e-04  1.58717e-03 -1.79973e-03
       H -9.89933e-06  2.93272e-03  4.02719e-03
       H  3.25341e-03  2.24103e-03 -3.16269e-04
       O -8.10012e-05  1.64794e-03 -1.87080e-03
       H  2.79068e-03  5.21031e-03 -3.29841e-03
       H  3.74440e-04  5.10981e-03 -3.77662e-03
192
# CELL(abcABC):   16.99620    29.43815    27.67315    90.00000    90.00000    90.00000  Step:          30  Bead:       4 velocities{atomic_unit}  cell{atomic_unit}
       O  4.84575e-04 -2.12035e-03 -3.54541e-04
       H -5.66856e-04  2.13370e-03  2.37715e-03
       H  2.26114e-03 -5.72267e-03  7.97734e-04
       O -1.23344e-03 -4.91109e-04 -5.80594e-04
       H  3.90553e-03 -6.79291e-04 -1.97391e-03
       H  4.08412e-03  3.49544e-04  3.92038e-03
       O  4.74447e-04  3.90829e-04  3.16160e-05
       H  3.87510e-03  5.37098e-04  3.53230e-03
       H  2.09866e-05 -1.60786e-03  3.38348e-04
       O  6.24926e-04 -4.52672e-04 -4.23372e-04
       H -3.35712e-03  1.88198e-03  3.60479e-03
       H -1.76421e-03  3.94055e-03 -9.39859e-03
       O -2.55125e-04  8.68976e-04  3.43791e-04
       H -1.64548e-03  1.97750e-03  1.61961e-03
       H -3.33105e-04  1.20346e-03 -1.38568e-03
       O -4.73249e-05 -7.59176e-04  7.73920e-05
       H -1.71376e-03  2.00100e-03  5.29633e-03
       H  4.54148e-03  2.44195e-03  7.10036e-03
       O -9.23617e-05 -9.59699e-04  7.90556e-04
       H -3.26672e-03 -7.06988e-04 -5.59167e-03
       H -2.79796e-03 -2.93551e-03  1.75032e-03
       O  1.16154e-04  1.17552e-03  4.16967e-04
       H -1.68533e-03  1.66833e-04 -1.05915e-03
       H -3.97230e-03  3.72582e-03 -2.57017e-04
       O  4.53873e-04  1.23598e-03  1.37497e-03
       H  5.42709e-03 -3.69240e-03  2.67846e-03
       H -4.86633e-03  2.50802e-03  4.28558e-03
       O -7.93963e-06 -1.02368e-03  6.32455e-04
       H  6.66467e-04  2.08378e-03  3.26753e-03
       H  4.52822e-04  1.26157e-03 -9.31606e-06
       O  1.93141e-05  1.11230e-03  2.13848e-04
       H  9.33170e-03  8.48398e-04 -3.22342e-03
       H -7.19479e-03 -4.66124e-03 -4.92871e-03
       O  3.66779e-04  5.97634e-04 -1.36257e-03
       H -1.04573e-03 -3.87603e-03 -1.07788e-04