192
# CELL(abcABC):   16.99620    29.43815    27.67315    90.00000    90.00000    90.00000  Step:           0  Bead:       7 positions{atomic_unit}  cell{atomic_unit}
       O -8.22215e+00 -9.94239e+00 -1.31733e+01
       H  7.30664e+00 -1.09711e+01 -1.36322e+01
       H -6.70615e+00 -1.09482e+01 -1.35006e+01
       O -3.97298e+00 -2.58228e+00 -1.31734e+01
       H -5.44033e+00 -3.61131e+00 -1.36317e+01
       H -2.45697e+00 -3.58820e+00 -1.35005e+01
       O -3.95756e+00 -1.25543e+01 -7.82386e-01
       H -3.95604e+00 -1.43515e+01 -2.29143e-01
       H -4.14759e+00 -1.25671e+01 -2.59983e+00
       O -8.20667e+00 -5.19495e+00 -7.82227e-01
       H -8.20527e+00 -6.99211e+00 -2.28860e-01
       H -8.39642e+00 -5.20788e+00 -2.59970e+00
       O -4.52495e+00 -1.21366e+01 -6.25523e+00
       H -6.04104e+00 -1.11308e+01 -6.58223e+00
       H -3.05766e+00 -1.11077e+01 -6.71383e+00
       O  8.22247e+00 -4.77716e+00 -6.25561e+00
       H  6.70639e+00 -3.77128e+00 -6.58235e+00
       H -7.30644e+00 -3.74813e+00 -6.71411e+00
       O  8.20650e+00 -9.52435e+00 -7.70064e+00
       H  8.39647e+00 -9.51190e+00 -9.51809e+00
       H  8.20529e+00 -7.72704e+00 -7.14768e+00
       O -4.54027e+00 -2.16431e+00 -7.70075e+00
       H -4.35006e+00 -2.15153e+00 -9.51816e+00
       H -4.54166e+00 -3.67089e-01 -7.14744e+00
       O -8.22211e+00 -9.94193e+00  6.63469e-01
       H  7.30672e+00 -1.09707e+01  2.04633e-01
       H -6.70609e+00 -1.09478e+01  3.36365e-01
       O -3.97290e+00 -2.58257e+00  6.63081e-01
       H -5.44032e+00 -3.61148e+00  2.04655e-01
       H -2.45688e+00 -3.58848e+00  3.35971e-01
       O -3.95760e+00 -1.25545e+01  1.30538e+01
       H -3.95614e+00 -1.43517e+01  1.36071e+01
       H -4.14757e+00 -1.25673e+01  1.12363e+01
       O -8.20656e+00 -5.19529e+00  1.30545e+01
       H -8.20517e+00 -6.99250e+00  1.36078e+01
       H -8.39634e+00 -5.20824e+00  1.12370e+01
       O -4.52490e+00 -1.21367e+01  7.58138e+00
       H -6.04102e+00 -1.11309e+01  7.25435e+00
       H -3.05757e+00 -1.11078e+01  7.12272e+00
       O  8.22232e+00 -4.77760e+00  7.58065e+00
       H  6.70627e+00 -3.77169e+00  7.25392e+00
       H -7.30657e+00 -3.74862e+00  7.12211e+00
       O  8.20656e+00 -9.52478e+00  6.13597e+00
       H  8.39651e+00 -9.51229e+00  4.31849e+00
       H  8.20527e+00 -7.72747e+00  6.68889e+00
       O -4.54025e+00 -2.16471e+00  6.13560e+00
       H -4.34999e+00 -2.15183e+00  4.31818e+00
       H -4.54168e+00 -3.67533e-01  6.68897e+00
       O -8.22212e+00  4.77724e+00 -1.31733e+01
       H  7.30671e+00  3.74833e+00 -1.36320e+01
       H -6.70607e+00  3.77135e+00 -1.35002e+01
       O -3.97288e+00  1.21369e+01 -1.31734e+01
       H -5.44030e+00  1.11079e+01 -1.36317e+01
       H -2.45689e+00  1.11310e+01 -1.35006e+01
       O -3.95757e+00  2.16435e+00 -7.82368e-01
       H -3.95607e+00  3.67109e-01 -2.29207e-01
       H -4.14756e+00  2.15166e+00 -2.59983e+00
       O -8.20667e+00  9.52420e+00 -7.81868e-01
       H -8.20527e+00  7.72699e+00 -2.28645e-01
       H -8.39652e+00  9.51128e+00 -2.59932e+00
       O -4.52494e+00  2.58246e+00 -6.25501e+00
       H -6.04100e+00  3.58821e+00 -6.58223e+00
       H -3.05758e+00  3.61139e+00 -6.71360e+00
       O  8.22236e+00  9.94146e+00 -6.25587e+00
       H  6.70631e+00  1.09474e+01 -6.58279e+00
       H -7.30653e+00  1.09705e+01 -6.71435e+00
       O  8.20665e+00  5.19438e+00 -7.70097e+00
       H  8.39659e+00  5.20693e+00 -9.51844e+00
       H  8.20533e+00  6.99167e+00 -7.14797e+00
       O -4.54026e+00  1.25545e+01 -7.70081e+00
       H -4.34992e+00  1.25674e+01 -9.51823e+00
       H -4.54169e+00  1.43517e+01 -7.14749e+00
       O -8.22210e+00  4.77691e+00  6.62996e-01
       H  7.30665e+00  3.74808e+00  2.04431e-01
       H -6.70613e+00  3.77091e+00  3.36028e-01
       O -3.97279e+00  1.21369e+01  6.63306e-01
       H -5.44019e+00  1.11079e+01  2.05006e-01
       H -2.45681e+00  1.11309e+01  3.36133e-01
       O -3.95757e+00  2.16479e+00  1.30545e+01
       H -3.95616e+00  3.67575e-01  1.36077e+01
       H -4.14769e+00  2.15200e+00  1.12370e+01
       O -8.20659e+00  9.52434e+00  1.30546e+01
       H -8.20522e+00  7.72713e+00  1.36079e+01
       H -8.39644e+00  9.51145e+00  1.12371e+01
       O -4.52499e+00  2.58228e+00  7.58148e+00
       H -6.04100e+00  3.58814e+00  7.25437e+00
       H -3.05766e+00  3.61126e+00  7.12297e+00
       O  8.22229e+00  9.94203e+00  7.58108e+00
       H  6.70627e+00  1.09480e+01  7.25419e+00
       H -7.30655e+00  1.09710e+01  7.12260e+00
       O  8.20668e+00  5.19493e+00  6.13567e+00
       H  8.39670e+00  5.20749e+00  4.31823e+00
       H  8.20535e+00  6.99219e+00  6.68874e+00
       O -4.54018e+00  1.25546e+01  6.13603e+00
       H -4.34989e+00  1.25674e+01  4.31861e+00
       H -4.54161e+00  1.43518e+01  6.68925e+00
       O  2.75877e-01 -9.94198e+00 -1.31737e+01
       H -1.19147e+00 -1.09709e+01 -1.36323e+01
       H  1.79191e+00 -1.09478e+01 -1.35009e+01
       O  4.52479e+00 -2.58220e+00 -1.31736e+01
       H  3.05750e+00 -3.61120e+00 -1.36322e+01
       H  6.04084e+00 -3.58815e+00 -1.35003e+01
       O  4.54038e+00 -1.25538e+01 -7.82378e-01
       H  4.54166e+00 -1.43510e+01 -2.29173e-01
       H  4.35042e+00 -1.25666e+01 -2.59983e+00
       O  2.91382e-01 -5.19489e+00 -7.82498e-01
       H  2.92775e-01 -6.99208e+00 -2.29179e-01
       H  1.01240e-01 -5.20770e+00 -2.59994e+00
       O  3.97307e+00 -1.21369e+01 -6.25482e+00
       H  2.45707e+00 -1.11310e+01 -6.58187e+00
       H  5.44043e+00 -1.11080e+01 -6.71350e+00
       O -2.76167e-01 -4.77714e+00 -6.25484e+00
       H -1.79215e+00 -3.77120e+00 -6.58193e+00
       H  1.19122e+00 -3.74822e+00 -6.71327e+00
       O -2.91294e-01 -9.52406e+00 -7.70061e+00
       H -1.01153e-01 -9.51128e+00 -9.51804e+00
       H -2.92737e-01 -7.72684e+00 -7.14734e+00
       O  3.95740e+00 -2.16468e+00 -7.70029e+00
       H  4.14711e+00 -2.15178e+00 -9.51779e+00
       H  3.95613e+00 -3.67477e-01 -7.14700e+00
       O  2.75838e-01 -9.94166e+00  6.63265e-01
       H -1.19143e+00 -1.09706e+01  2.04532e-01
       H  1.79197e+00 -1.09474e+01  3.36068e-01
       O  4.52471e+00 -2.58218e+00  6.62891e-01
       H  3.05743e+00 -3.61117e+00  2.04240e-01
       H  6.04080e+00 -3.58806e+00  3.36089e-01
       O  4.54037e+00 -1.25543e+01  1.30539e+01
       H  4.54173e+00 -1.43516e+01  1.36070e+01
       H  4.35050e+00 -1.25670e+01  1.12364e+01
       O  2.91297e-01 -5.19502e+00  1.30541e+01
       H  2.92732e-01 -6.99225e+00  1.36074e+01
       H  1.01206e-01 -5.20786e+00  1.12367e+01
       O  3.97310e+00 -1.21368e+01  7.58177e+00
       H  2.45707e+00 -1.11309e+01  7.25464e+00
       H  5.44051e+00 -1.11080e+01  7.12302e+00
       O -2.76100e-01 -4.77767e+00  7.58136e+00
       H -1.79210e+00 -3.77177e+00  7.25428e+00
       H  1.19125e+00 -3.74871e+00  7.12290e+00
       O -2.91340e-01 -9.52458e+00  6.13593e+00
       H -1.01282e-01 -9.51181e+00  4.31852e+00
       H -2.92762e-01 -7.72734e+00  6.68916e+00
       O  3.95728e+00 -2.16475e+00  6.13602e+00
       H  4.14704e+00 -2.15175e+00  4.31853e+00
       H  3.95603e+00 -3.67615e-01  6.68942e+00
       O  2.75872e-01  4.77775e+00 -1.31735e+01
       H -1.19145e+00  3.74868e+00 -1.36320e+01
       H  1.79192e+00  3.77189e+00 -1.35005e+01
       O  4.52473e+00  1.21369e+01 -1.31737e+01
       H  3.05744e+00  1.11080e+01 -1.36325e+01
       H  6.04082e+00  1.11311e+01 -1.35004e+01
       O  4.54033e+00  2.16480e+00 -7.82502e-01
       H  4.54166e+00  3.67553e-01 -2.29384e-01
       H  4.35052e+00  2.15214e+00 -2.60000e+00
       O  2.91442e-01  9.52423e+00 -7.82681e-01
       H  2.92837e-01  7.72701e+00 -2.29452e-01
       H  1.01299e-01  9.51146e+00 -2.60013e+00
       O  3.97319e+00  2.58230e+00 -6.25496e+00
       H  2.45717e+00  3.58819e+00 -6.58198e+00
       H  5.44056e+00  3.61109e+00 -6.71379e+00
       O -2.76125e-01  9.94167e+00 -6.25515e+00
       H -1.79212e+00  1.09476e+01 -6.58222e+00
       H  1.19126e+00  1.09706e+01 -6.71377e+00
       O -2.91369e-01  5.19475e+00 -7.70046e+00
       H -1.01380e-01  5.20765e+00 -9.51793e+00
       H -2.92793e-01  6.99195e+00 -7.14718e+00
       O  3.95737e+00  1.25543e+01 -7.70076e+00
       H  4.14703e+00  1.25673e+01 -9.51824e+00
       H  3.95606e+00  1.43514e+01 -7.14726e+00
       O  2.75794e-01  4.77734e+00  6.62959e-01
       H -1.19152e+00  3.74832e+00  2.04499e-01
       H  1.79186e+00  3.77147e+00  3.35887e-01
       O  4.52464e+00  1.21373e+01  6.62988e-01
       H  3.05745e+00  1.11082e+01  2.04218e-01
       H  6.04076e+00  1.11314e+01  3.36450e-01
       O  4.54041e+00  2.16499e+00  1.30543e+01
       H  4.54178e+00  3.67749e-01  1.36074e+01
       H  4.35054e+00  2.15228e+00  1.12368e+01
       O  2.91308e-01  9.52457e+00  1.30538e+01
       H  2.92715e-01  7.72735e+00  1.36071e+01
       H  1.01225e-01  9.51181e+00  1.12363e+01
       O  3.97315e+00  2.58235e+00  7.58152e+00
       H  2.45713e+00  3.58829e+00  7.25455e+00
       H  5.44048e+00  3.61122e+00  7.12279e+00
       O -2.76008e-01  9.94202e+00  7.58171e+00
       H -1.79205e+00  1.09479e+01  7.25468e+00
       H  1.19134e+00  1.09710e+01  7.12317e+00
       O -2.91416e-01  5.19510e+00  6.13606e+00
       H -1.01371e-01  5.20795e+00  4.31863e+00
       H -2.92777e-01  6.99228e+00  6.68938e+00
       O  3.95729e+00  1.25546e+01  6.13612e+00
       H  4.14688e+00  1.25676e+01  4.31864e+00
       H  3.95603e+00  1.43518e+01  6.68952e+00
192
# CELL(abcABC):   16.99620    29.43815    27.67315    90.00000    90.00000    90.00000  Step:          10  Bead:       7 positions{atomic_unit}  cell{atomic_unit}
       O -8.17966e+00 -9.93758e+00 -1.31393e+01
       H  7.18248e+00 -1.09761e+01 -1.35560e+01
       H -6.78969e+00 -1.09299e+01 -1.37780e+01
       O -3.98544e+00 -2.58302e+00 -1.31605e+01
       H -5.46484e+00 -3.81966e+00 -1.36621e+01
       H -2.40228e+00 -3.72887e+00 -1.37374e+01
       O -3.98097e+00 -1.26152e+01 -7.28453e-01
       H -3.97643e+00 -1.43806e+01 -4.99483e-02
       H -4.15467e+00 -1.27890e+01 -2.51677e+00
       O -8.21613e+00 -5.18562e+00 -8.13764e-01
       H -8.02180e+00 -7.15769e+00 -1.03886e-01
       H -8.68235e+00 -5.16345e+00 -2.53319e+00
       O -4.47796e+00 -1.21323e+01 -6.25118e+00
       H -6.12317e+00 -1.13446e+01 -6.62341e+00
       H -2.84426e+00 -1.11471e+01 -6.82272e+00
       O  8.24842e+00 -4.76635e+00 -6.28784e+00
       H  6.80068e+00 -3.59425e+00 -6.67187e+00
       H -7.38069e+00 -3.79632e+00 -6.56314e+00
       O  8.20164e+00 -9.52406e+00 -7.69201e+00
       H  8.44184e+00 -9.51383e+00 -9.55641e+00
       H  8.27835e+00 -7.76369e+00 -7.25737e+00
       O -4.58165e+00 -2.14588e+00 -7.70079e+00
       H -4.31209e+00 -2.10716e+00 -9.64404e+00
       H -4.51283e+00 -4.14702e-01 -7.09199e+00
       O -8.26874e+00 -9.99105e+00  6.95668e-01
       H  7.15372e+00 -1.09806e+01  3.04863e-01
       H -6.87136e+00 -1.09471e+01  2.40538e-01
       O -3.90353e+00 -2.58053e+00  6.80299e-01
       H -5.32103e+00 -3.62117e+00  5.93350e-01
       H -2.60824e+00 -3.64517e+00  5.41723e-01
       O -3.95618e+00 -1.25356e+01  1.30296e+01
       H -4.03799e+00 -1.45313e+01  1.34943e+01
       H -4.10614e+00 -1.26023e+01  1.10845e+01
       O -8.15824e+00 -5.18779e+00  1.29855e+01
       H -7.98093e+00 -7.10569e+00  1.34646e+01
       H -8.27531e+00 -5.25659e+00  1.10301e+01
       O -4.52598e+00 -1.21459e+01  7.64145e+00
       H -6.02034e+00 -1.09847e+01  7.03235e+00
       H -3.06890e+00 -1.09254e+01  7.42057e+00
       O  8.26302e+00 -4.75204e+00  7.62032e+00
       H  6.77375e+00 -4.02144e+00  7.44174e+00
       H -7.26687e+00 -3.83722e+00  7.23372e+00
       O  8.14922e+00 -9.48926e+00  6.14105e+00
       H  8.18587e+00 -9.62525e+00  4.27058e+00
       H  7.97007e+00 -7.85287e+00  6.84138e+00
       O -4.60528e+00 -2.15862e+00  6.09044e+00
       H -4.54214e+00 -1.76316e+00  4.30445e+00
       H -4.36486e+00 -2.75950e-01  6.75475e+00
       O -8.25468e+00  4.73673e+00 -1.31958e+01
       H  7.32210e+00  3.58075e+00 -1.37384e+01
       H -6.89251e+00  3.85500e+00 -1.35283e+01
       O -3.97269e+00  1.21114e+01 -1.31484e+01
       H -5.63909e+00  1.12850e+01 -1.37259e+01
       H -2.23879e+00  1.12869e+01 -1.33604e+01
       O -3.93009e+00  2.16868e+00 -8.42048e-01
       H -4.04444e+00  3.85940e-01 -1.24745e-01
       H -4.35129e+00  2.18750e+00 -2.71302e+00
       O -8.21654e+00  9.52734e+00 -7.78347e-01
       H -8.13621e+00  8.01523e+00 -2.67868e-01
       H -8.42014e+00  9.78742e+00 -2.64041e+00
       O -4.49826e+00  2.63125e+00 -6.26949e+00
       H -5.99878e+00  3.53369e+00 -6.46524e+00
       H -3.04776e+00  3.35951e+00 -6.82987e+00
       O  8.23478e+00  9.97617e+00 -6.29088e+00
       H  6.76243e+00  1.07302e+01 -6.35052e+00
       H -7.16394e+00  1.12009e+01 -6.54214e+00
       O  8.18134e+00  5.22011e+00 -7.75436e+00
       H  8.48473e+00  5.10006e+00 -9.51344e+00
       H  8.36562e+00  6.88423e+00 -7.16856e+00
       O -4.60243e+00  1.25659e+01 -7.76341e+00
       H -4.54297e+00  1.25003e+01 -9.51780e+00
       H -4.78225e+00  1.46670e+01 -7.19720e+00
       O -8.26951e+00  4.81027e+00  6.81932e-01
       H  7.21962e+00  3.81618e+00  2.01388e-01
       H -6.76740e+00  3.49742e+00  5.19739e-01
       O -3.96840e+00  1.21155e+01  6.59597e-01
       H -5.37709e+00  1.12738e+01  4.23038e-01
       H -2.52383e+00  1.12000e+01  3.02277e-01
       O -4.02137e+00  2.13404e+00  1.29855e+01
       H -3.94372e+00  3.59223e-01  1.35322e+01
       H -4.41124e+00  2.15221e+00  1.13498e+01
       O -8.18795e+00  9.44528e+00  1.30751e+01
       H -8.28918e+00  7.48657e+00  1.37106e+01
       H -8.26170e+00  9.48607e+00  1.09286e+01
       O -4.49943e+00  2.56031e+00  7.59304e+00
       H -6.11368e+00  3.72971e+00  7.21098e+00
       H -2.87743e+00  3.50961e+00  7.09597e+00
       O  8.21831e+00  9.93390e+00  7.56568e+00
       H  6.65633e+00  1.10289e+01  7.35324e+00
       H -7.34104e+00  1.07908e+01  6.86652e+00
       O  8.18696e+00  5.20888e+00  6.05394e+00
       H  8.60034e+00  5.21563e+00  4.11301e+00
       H  8.15942e+00  6.70564e+00  6.94497e+00
       O -4.52523e+00  1.25864e+01  6.12526e+00
       H -4.23706e+00  1.29375e+01  4.51489e+00
       H -4.58352e+00  1.43084e+01  6.92333e+00
       O  2.91175e-01 -9.92303e+00 -1.31406e+01
       H -1.16972e+00 -1.10511e+01 -1.33510e+01
       H  1.59954e+00 -1.11223e+01 -1.36159e+01
       O  4.58449e+00 -2.53651e+00 -1.31449e+01
       H  2.96249e+00 -3.73164e+00 -1.34344e+01
       H  6.14125e+00 -3.70639e+00 -1.34606e+01
       O  4.58230e+00 -1.26180e+01 -7.99445e-01
       H  4.38502e+00 -1.45784e+01 -8.29423e-02
       H  4.25077e+00 -1.25440e+01 -2.65326e+00
       O  2.32831e-01 -5.14177e+00 -7.40849e-01
       H  2.10369e-01 -6.92702e+00  5.45023e-02
       H  2.03550e-02 -5.25424e+00 -2.57043e+00
       O  4.00480e+00 -1.21047e+01 -6.23085e+00
       H  2.32080e+00 -1.11505e+01 -6.60323e+00
       H  5.44875e+00 -1.11785e+01 -6.82789e+00
       O -2.75116e-01 -4.84746e+00 -6.22473e+00
       H -2.00279e+00 -3.55390e+00 -6.69112e+00
       H  1.22042e+00 -3.93951e+00 -6.63483e+00
       O -3.23182e-01 -9.56509e+00 -7.67731e+00
       H -6.50592e-02 -9.39930e+00 -9.34600e+00
       H -3.83875e-01 -7.67140e+00 -7.18004e+00
       O  3.89853e+00 -2.16782e+00 -7.68075e+00
       H  4.25550e+00 -2.36135e+00 -9.55403e+00
       H  3.98648e+00 -4.92936e-01 -7.09700e+00
       O  2.68419e-01 -9.94965e+00  6.86720e-01
       H -1.20631e+00 -1.10192e+01  1.87253e-01
       H  1.90576e+00 -1.09388e+01  2.22292e-01
       O  4.57496e+00 -2.53048e+00  6.82810e-01
       H  3.11325e+00 -3.81778e+00  3.14497e-01
       H  6.05689e+00 -3.41691e+00  4.29279e-01
       O  4.60475e+00 -1.25324e+01  1.30896e+01
       H  4.56572e+00 -1.44174e+01  1.35057e+01
       H  4.03848e+00 -1.26634e+01  1.12709e+01
       O  2.89470e-01 -5.18270e+00  1.31094e+01
       H  8.69487e-02 -7.10552e+00  1.35646e+01
       H  2.36326e-02 -5.34780e+00  1.11971e+01
       O  3.97049e+00 -1.21435e+01  7.58038e+00
       H  2.51418e+00 -1.11013e+01  7.37558e+00
       H  5.26248e+00 -1.09478e+01  7.04839e+00
       O -1.71552e-01 -4.76098e+00  7.60726e+00
       H -1.85103e+00 -3.76314e+00  7.15612e+00
       H  1.40400e+00 -3.77389e+00  7.22034e+00
       O -2.95026e-01 -9.55216e+00  6.16546e+00
       H -3.02456e-01 -9.42446e+00  4.18070e+00
       H -2.15708e-01 -7.70613e+00  6.54697e+00
       O  4.00561e+00 -2.11131e+00  6.12629e+00
       H  4.35344e+00 -1.90823e+00  4.36106e+00
       H  3.93074e+00 -5.60010e-01  6.56009e+00
       O  2.05497e-01  4.81038e+00 -1.31458e+01
       H -1.20844e+00  3.69422e+00 -1.38504e+01
       H  1.72206e+00  3.70133e+00 -1.36162e+01
       O  4.55586e+00  1.21355e+01 -1.31345e+01
       H  3.11866e+00  1.08612e+01 -1.38086e+01
       H  5.92819e+00  1.11306e+01 -1.33261e+01
       O  4.50921e+00  2.23123e+00 -7.81899e-01
       H  4.49999e+00  4.73948e-01 -2.01465e-01
       H  4.39565e+00  2.11333e+00 -2.57776e+00
       O  2.58426e-01  9.52216e+00 -7.49773e-01
       H  3.82102e-01  7.54228e+00 -4.47595e-01
       H  4.90088e-01  9.54072e+00 -2.62174e+00
       O  3.99572e+00  2.54294e+00 -6.19850e+00
       H  2.52299e+00  3.46049e+00 -6.70683e+00
       H  5.30870e+00  3.81600e+00 -6.50834e+00
       O -2.92779e-01  9.98103e+00 -6.25932e+00
       H -1.82776e+00  1.07704e+01 -6.75730e+00
       H  1.27349e+00  1.11989e+01 -6.56417e+00
       O -4.01045e-01  5.19653e+00 -7.68718e+00
       H  3.58614e-02  5.01176e+00 -9.54237e+00
       H -4.19967e-01  6.97086e+00 -6.85052e+00
       O  3.91056e+00  1.26087e+01 -7.70771e+00
       H  4.34873e+00  1.28356e+01 -9.55856e+00
       H  3.81428e+00  1.43085e+01 -6.93219e+00
       O  2.55618e-01  4.76685e+00  6.37244e-01
       H -1.27950e+00  3.47992e+00  3.70523e-01
       H  1.86680e+00  3.72348e+00  4.25280e-01
       O  4.50255e+00  1.20724e+01  6.88951e-01
       H  3.19460e+00  1.09655e+01  2.21170e-01
       H  6.32839e+00  1.12490e+01  4.19264e-01
       O  4.54087e+00  2.20943e+00  1.30079e+01
       H  4.43029e+00  3.99189e-01  1.36207e+01
       H  4.47403e+00  2.00951e+00  1.10763e+01
       O  3.31096e-01  9.46232e+00  1.30055e+01
       H  3.71579e-01  7.79760e+00  1.36756e+01
       H  2.11953e-02  9.46102e+00  1.11806e+01
       O  3.95490e+00  2.54986e+00  7.56591e+00
       H  2.30510e+00  3.45932e+00  7.23886e+00
       H  5.61678e+00  3.51094e+00  7.15743e+00
       O -2.02419e-01  9.87491e+00  7.64995e+00
       H -1.72812e+00  1.09004e+01  7.32753e+00
       H  9.71117e-01  1.09965e+01  7.39403e+00
       O -2.54278e-01  5.17766e+00  6.11041e+00
       H -1.33952e-01  5.29836e+00  4.29550e+00
       H -5.79752e-02  6.98238e+00  6.71276e+00
       O  4.00414e+00  1.25463e+01  6.15777e+00
       H  3.87717e+00  1.27143e+01  4.30336e+00
       H  3.72775e+00  1.44698e+01  6.51783e+00
192
# CELL(abcABC):   16.99620    29.43815    27.67315    90.00000    90.00000    90.00000  Step:          20  Bead:       7 positions{atomic_unit}  cell{atomic_unit}
       O -8.24037e+00 -9.94739e+00 -1.30731e+01
       H  7.16541e+00 -1.09937e+01 -1.36229e+01
       H -6.62267e+00 -1.12381e+01 -1.37132e+01
       O -3.97909e+00 -2.58195e+00 -1.32273e+01
       H -5.54112e+00 -3.67781e+00 -1.36397e+01
       H -2.55428e+00 -3.48308e+00 -1.37381e+01
       O -4.01637e+00 -1.25392e+01 -7.50743e-01
       H -4.00738e+00 -1.44737e+01 -5.83777e-02
       H -4.29514e+00 -1.27576e+01 -2.50927e+00
       O -8.26714e+00 -5.14531e+00 -8.13186e-01
       H -8.16109e+00 -7.02509e+00 -2.15492e-01
       H -8.75756e+00 -4.91653e+00 -2.55915e+00
       O -4.47633e+00 -1.21442e+01 -6.19979e+00
       H -5.95250e+00 -1.12033e+01 -6.61247e+00
       H -2.67027e+00 -1.12308e+01 -6.87641e+00
       O  8.28472e+00 -4.72924e+00 -6.32710e+00
       H  6.82123e+00 -3.42396e+00 -6.66690e+00
       H -7.11402e+00 -3.69982e+00 -6.51378e+00
       O  8.13120e+00 -9.56891e+00 -7.67074e+00
       H  8.40316e+00 -9.39074e+00 -9.36923e+00
       H  8.04350e+00 -7.90531e+00 -7.01588e+00
       O -4.62313e+00 -2.13456e+00 -7.68723e+00
       H -4.02143e+00 -2.18672e+00 -9.52951e+00
       H -4.79437e+00 -2.62891e-01 -7.02303e+00
       O -8.34659e+00 -9.90177e+00  6.87612e-01
       H  7.16894e+00 -1.09216e+01  3.78531e-01
       H -6.65468e+00 -1.09590e+01  5.90967e-02
       O -3.93713e+00 -2.59664e+00  7.68725e-01
       H -5.43543e+00 -3.67905e+00  4.84351e-01
       H -2.30991e+00 -3.73656e+00  3.90657e-01
       O -3.93509e+00 -1.25128e+01  1.30298e+01
       H -4.07301e+00 -1.43066e+01  1.36505e+01
       H -4.19257e+00 -1.29095e+01  1.10179e+01
       O -8.20533e+00 -5.16910e+00  1.30044e+01
       H -7.83075e+00 -7.03301e+00  1.35165e+01
       H -8.31692e+00 -5.43915e+00  1.11728e+01
       O -4.44861e+00 -1.21753e+01  7.61595e+00
       H -6.02922e+00 -1.10270e+01  7.38668e+00
       H -3.11249e+00 -1.09770e+01  7.64100e+00
       O  8.30316e+00 -4.72826e+00  7.60567e+00
       H  6.58446e+00 -3.81396e+00  7.43892e+00
       H -7.16757e+00 -3.55236e+00  7.12768e+00
       O  8.08277e+00 -9.54242e+00  6.16754e+00
       H  8.28804e+00 -9.68848e+00  4.27308e+00
       H  7.84622e+00 -8.00969e+00  6.92618e+00
       O -4.63114e+00 -2.11420e+00  6.12581e+00
       H -4.41362e+00 -1.61148e+00  4.26385e+00
       H -4.56504e+00 -5.33308e-01  6.65827e+00
       O -8.29729e+00  4.73888e+00 -1.33197e+01
       H  7.46818e+00  3.82217e+00 -1.36325e+01
       H -6.65306e+00  3.78060e+00 -1.35242e+01
       O -4.01240e+00  1.21642e+01 -1.31416e+01
       H -5.43820e+00  1.10747e+01 -1.37609e+01
       H -2.59204e+00  1.14381e+01 -1.32101e+01
       O -3.94241e+00  2.20648e+00 -8.61545e-01
       H -4.27207e+00  4.91969e-01 -9.66643e-02
       H -4.40053e+00  2.08957e+00 -2.41945e+00
       O -8.25806e+00  9.52712e+00 -7.51671e-01
       H -8.04712e+00  7.80797e+00 -2.99823e-01
       H -8.40851e+00  9.76673e+00 -2.35753e+00
       O -4.50346e+00  2.61724e+00 -6.29178e+00
       H -6.25585e+00  3.79151e+00 -6.57009e+00
       H -2.85625e+00  3.58247e+00 -6.65872e+00
       O  8.25759e+00  9.91950e+00 -6.28435e+00
       H  6.48923e+00  1.09755e+01 -6.26314e+00
       H -7.25375e+00  1.11420e+01 -6.59554e+00
       O  8.15718e+00  5.26956e+00 -7.70171e+00
       H  8.63255e+00  5.20296e+00 -9.65252e+00
       H  8.54575e+00  7.14828e+00 -7.24749e+00
       O -4.64381e+00  1.25152e+01 -7.73499e+00
       H -4.70873e+00  1.24254e+01 -9.59995e+00
       H -4.84421e+00  1.46260e+01 -7.38775e+00
       O -8.27522e+00  4.78651e+00  6.22893e-01
       H  7.30649e+00  3.80260e+00  3.01359e-01
       H -6.93221e+00  3.63206e+00  4.91283e-01
       O -3.98092e+00  1.21133e+01  5.94747e-01
       H -5.50052e+00  1.09797e+01  2.38509e-01
       H -2.32613e+00  1.08961e+01  3.87901e-01
       O -4.03510e+00  2.01420e+00  1.30047e+01
       H -3.76800e+00  2.49471e-01  1.35681e+01
       H -4.74536e+00  2.38121e+00  1.12899e+01
       O -8.17409e+00  9.42771e+00  1.30062e+01
       H -8.24402e+00  7.41701e+00  1.36419e+01
       H -8.41634e+00  9.21803e+00  1.10457e+01
       O -4.48348e+00  2.52674e+00  7.59460e+00
       H -6.07487e+00  3.34743e+00  7.14808e+00
       H -2.85319e+00  3.56281e+00  7.20336e+00
       O  8.22126e+00  9.94647e+00  7.52465e+00
       H  6.76382e+00  1.08728e+01  7.30522e+00
       H -7.39808e+00  1.08111e+01  6.91412e+00
       O  8.22551e+00  5.20612e+00  6.09377e+00
       H  8.34022e+00  5.50463e+00  4.27125e+00
       H  8.58343e+00  6.91019e+00  6.85439e+00
       O -4.51545e+00  1.25823e+01  6.06797e+00
       H -4.21143e+00  1.28704e+01  4.22463e+00
       H -4.54075e+00  1.44052e+01  7.04057e+00
       O  3.29522e-01 -9.88904e+00 -1.32036e+01
       H -1.36118e+00 -1.11364e+01 -1.30371e+01
       H  1.56501e+00 -1.11727e+01 -1.36599e+01
       O  4.58293e+00 -2.48918e+00 -1.31095e+01
       H  3.10796e+00 -3.67281e+00 -1.33502e+01
       H  6.23231e+00 -3.64030e+00 -1.33295e+01
       O  4.61471e+00 -1.26321e+01 -8.35800e-01
       H  4.70482e+00 -1.46105e+01 -1.34395e-01
       H  4.45308e+00 -1.27523e+01 -2.83840e+00
       O  2.69491e-01 -5.23669e+00 -7.79141e-01
       H  2.25543e-01 -7.05869e+00  2.46083e-02
       H  1.67613e-01 -5.30629e+00 -2.73295e+00
       O  3.93416e+00 -1.20633e+01 -6.19821e+00
       H  2.25018e+00 -1.11949e+01 -6.80931e+00
       H  5.54375e+00 -1.12985e+01 -7.19192e+00
       O -3.06543e-01 -4.78860e+00 -6.18708e+00
       H -1.78063e+00 -3.65334e+00 -6.79356e+00
       H  1.22648e+00 -3.87931e+00 -6.55208e+00
       O -2.67335e-01 -9.60155e+00 -7.66468e+00
       H -9.52719e-02 -9.60235e+00 -9.55378e+00
       H -2.11071e-01 -7.64296e+00 -6.89736e+00
       O  3.87692e+00 -2.20903e+00 -7.66136e+00
       H  4.13031e+00 -2.44638e+00 -9.50980e+00
       H  3.91706e+00 -5.69377e-01 -7.24410e+00
       O  2.71611e-01 -9.97707e+00  7.04809e-01
       H -1.39683e+00 -1.11361e+01  5.60473e-02
       H  1.79282e+00 -1.06923e+01  4.67782e-01
       O  4.58649e+00 -2.51075e+00  6.42493e-01
       H  2.97346e+00 -3.87025e+00  6.81674e-01
       H  6.36313e+00 -3.45445e+00  2.98037e-01
       O  4.63242e+00 -1.24876e+01  1.31791e+01
       H  4.62319e+00 -1.44296e+01  1.34064e+01
       H  3.88800e+00 -1.25006e+01  1.12234e+01
       O  3.44353e-01 -5.17313e+00  1.31038e+01
       H  6.90173e-02 -7.09922e+00  1.35611e+01
       H -3.68172e-02 -5.33116e+00  1.11603e+01
       O  3.96298e+00 -1.21677e+01  7.45087e+00
       H  2.34773e+00 -1.10342e+01  7.48851e+00
       H  5.42903e+00 -1.06352e+01  6.99529e+00
       O -1.88074e-01 -4.80987e+00  7.59860e+00
       H -1.74428e+00 -3.79531e+00  7.03874e+00
       H  1.21978e+00 -3.55194e+00  6.99188e+00
       O -2.82802e-01 -9.47806e+00  6.13021e+00
       H -1.71602e-01 -9.48977e+00  4.38576e+00
       H -3.61120e-01 -7.46307e+00  6.60005e+00
       O  4.06890e+00 -2.22612e+00  6.07055e+00
       H  4.31692e+00 -2.04856e+00  4.33974e+00
       H  4.04552e+00 -5.94413e-01  6.39021e+00
       O  2.06648e-01  4.77836e+00 -1.30855e+01
       H -1.38287e+00  4.01419e+00 -1.41772e+01
       H  1.60625e+00  3.91052e+00 -1.38033e+01
       O  4.52371e+00  1.20812e+01 -1.31598e+01
       H  3.22581e+00  1.06810e+01 -1.39710e+01
       H  6.04945e+00  1.12172e+01 -1.35307e+01
       O  4.45972e+00  2.24036e+00 -8.32344e-01
       H  4.98884e+00  6.40499e-01 -7.54191e-02
       H  3.82404e+00  2.07760e+00 -2.39827e+00
       O  2.64607e-01  9.47774e+00 -7.44302e-01
       H  3.29708e-01  7.51047e+00 -2.36367e-01
       H  1.11745e-01  9.53104e+00 -2.47913e+00
       O  3.90318e+00  2.57284e+00 -6.11134e+00
       H  2.58696e+00  3.95660e+00 -6.30140e+00
       H  5.36919e+00  3.84568e+00 -6.48166e+00
       O -2.28617e-01  1.00132e+01 -6.21828e+00
       H -1.78650e+00  1.07525e+01 -6.59795e+00
       H  1.12630e+00  1.10055e+01 -6.82445e+00
       O -3.53359e-01  5.14442e+00 -7.68587e+00
       H -5.06777e-02  5.04716e+00 -9.48083e+00
       H -2.21874e-01  7.00348e+00 -6.89562e+00
       O  3.96156e+00  1.26012e+01 -7.71385e+00
       H  4.36992e+00  1.26926e+01 -9.56699e+00
       H  3.95901e+00  1.41666e+01 -6.84597e+00
       O  2.45399e-01  4.77608e+00  6.94062e-01
       H -9.56405e-01  3.44037e+00  1.38201e-01
       H  1.56592e+00  3.61910e+00  7.80312e-01
       O  4.46220e+00  1.20331e+01  7.06617e-01
       H  2.78626e+00  1.09446e+01  2.51757e-01
       H  6.21616e+00  1.14639e+01  4.77175e-01
       O  4.47421e+00  2.32065e+00  1.30097e+01
       H  4.55369e+00  3.22527e-01  1.35829e+01
       H  4.36356e+00  1.93393e+00  1.12176e+01
       O  2.99170e-01  9.41131e+00  1.29054e+01
       H  3.66355e-01  7.73603e+00  1.39177e+01
       H -1.58667e-01  9.50964e+00  1.10377e+01
       O  3.97768e+00  2.55935e+00  7.61068e+00
       H  2.35150e+00  3.16354e+00  7.05174e+00
       H  5.72937e+00  3.42325e+00  7.11655e+00
       O -1.91457e-01  9.81424e+00  7.75382e+00
       H -1.89137e+00  1.06624e+01  7.42241e+00
       H  1.12935e+00  1.12568e+01  7.45913e+00
       O -3.29302e-01  5.20014e+00  6.07245e+00
       H -1.68587e-01  5.19687e+00  4.13274e+00
       H -6.68558e-02  6.87603e+00  6.62346e+00
       O  4.13200e+00  1.25759e+01  6.10755e+00
       H  4.04102e+00  1.31851e+01  4.44414e+00
       H  3.58721e+00  1.45575e+01  6.53332e+00
192
# CELL(abcABC):   16.99620    29.43815    27.67315    90.00000    90.00000    90.00000  Step:          30  Bead:       7 positions{atomic_unit}  cell{atomic_unit}
       O -8.23318e+00 -1.00304e+01 -1.30072e+01
       H  7.06712e+00 -1.08205e+01 -1.36081e+01
       H -6.79193e+00 -1.12211e+01 -1.38701e+01
       O -3.99469e+00 -2.61418e+00 -1.31935e+01
       H -5.73929e+00 -3.52997e+00 -1.37390e+01
       H -2.43056e+00 -3.40652e+00 -1.37751e+01
       O -4.00362e+00 -1.25370e+01 -8.65142e-01
       H -3.97103e+00 -1.45584e+01  2.95917e-02
       H -4.26403e+00 -1.30486e+01 -2.60805e+00
       O -8.28138e+00 -5.08965e+00 -7.98250e-01
       H -8.19041e+00 -6.95721e+00 -2.26862e-01
       H -8.79878e+00 -4.83233e+00 -2.46401e+00
       O -4.40288e+00 -1.22271e+01 -6.20435e+00
       H -5.67155e+00 -1.10822e+01 -6.65625e+00
       H -2.65502e+00 -1.13758e+01 -6.99300e+00
       O  8.28575e+00 -4.70255e+00 -6.34975e+00
       H  6.98278e+00 -3.35353e+00 -6.68725e+00
       H -6.77754e+00 -3.78177e+00 -6.58034e+00
       O  8.14001e+00 -9.57960e+00 -7.56575e+00
       H  8.17878e+00 -9.02691e+00 -9.30525e+00
       H  7.97640e+00 -7.82172e+00 -7.39528e+00
       O -4.59877e+00 -2.15561e+00 -7.65290e+00
       H -3.96255e+00 -2.14545e+00 -9.56283e+00
       H -4.97376e+00 -2.02517e-01 -6.85309e+00
       O -8.38447e+00 -9.85688e+00  6.23741e-01
       H  7.26721e+00 -1.10391e+01  3.81906e-01
       H -6.90950e+00 -1.08285e+01  3.35486e-02
       O -3.88621e+00 -2.58895e+00  8.16556e-01
       H -5.48535e+00 -3.70067e+00  1.68389e-01
       H -2.41029e+00 -3.83176e+00  4.26247e-01
       O -3.89966e+00 -1.24987e+01  1.30909e+01
       H -4.25672e+00 -1.43558e+01  1.36497e+01
       H -3.95512e+00 -1.26046e+01  1.11303e+01
       O -8.20397e+00 -5.21739e+00  1.29934e+01
       H -7.80173e+00 -6.89441e+00  1.33246e+01