192
# CELL(abcABC):   16.99620    29.43815    27.67315    90.00000    90.00000    90.00000  Step:           0  Bead:       7 positions{atomic_unit}  cell{atomic_unit}
       O -8.21943e+00 -9.93714e+00 -1.31733e+01
       H  7.30975e+00 -1.09659e+01 -1.36333e+01
       H -6.70309e+00 -1.09427e+01 -1.35003e+01
       O -3.97045e+00 -2.57760e+00 -1.31733e+01
       H -5.43740e+00 -3.60640e+00 -1.36335e+01
       H -2.45410e+00 -3.58307e+00 -1.35002e+01
       O -3.95479e+00 -1.25494e+01 -7.82537e-01
       H -3.95303e+00 -1.43463e+01 -2.27998e-01
       H -4.14654e+00 -1.25640e+01 -2.59980e+00
       O -8.20381e+00 -5.18980e+00 -7.82573e-01
       H -8.20206e+00 -6.98662e+00 -2.28079e-01
       H -8.39554e+00 -5.20430e+00 -2.59985e+00
       O -4.52774e+00 -1.21415e+01 -6.25501e+00
       H -6.04401e+00 -1.11359e+01 -6.58198e+00
       H -3.06070e+00 -1.11128e+01 -6.71509e+00
       O  8.21948e+00 -4.78197e+00 -6.25503e+00
       H  6.70316e+00 -3.77646e+00 -6.58191e+00
       H -7.30970e+00 -3.75321e+00 -6.71514e+00
       O  8.20373e+00 -9.52922e+00 -7.70081e+00
       H  8.39566e+00 -9.51468e+00 -9.51806e+00
       H  8.20220e+00 -7.73240e+00 -7.14624e+00
       O -4.54345e+00 -2.16975e+00 -7.70084e+00
       H -4.35162e+00 -2.15526e+00 -9.51812e+00
       H -4.54503e+00 -3.72917e-01 -7.14634e+00
       O -8.21943e+00 -9.93697e+00  6.63195e-01
       H  7.30977e+00 -1.09657e+01  2.03202e-01
       H -6.70308e+00 -1.09425e+01  3.36227e-01
       O -3.97044e+00 -2.57760e+00  6.63173e-01
       H -5.43747e+00 -3.60635e+00  2.03069e-01
       H -2.45410e+00 -3.58312e+00  3.36346e-01
       O -3.95472e+00 -1.25494e+01  1.30540e+01
       H -3.95309e+00 -1.43462e+01  1.36086e+01
       H -4.14653e+00 -1.25640e+01  1.12368e+01
       O -8.20380e+00 -5.18990e+00  1.30541e+01
       H -8.20202e+00 -6.98672e+00  1.36085e+01
       H -8.39553e+00 -5.20434e+00  1.12368e+01
       O -4.52771e+00 -1.21415e+01  7.58159e+00
       H -6.04402e+00 -1.11360e+01  7.25460e+00
       H -3.06070e+00 -1.11128e+01  7.12152e+00
       O  8.21944e+00 -4.78191e+00  7.58149e+00
       H  6.70312e+00 -3.77633e+00  7.25453e+00
       H -7.30974e+00 -3.75322e+00  7.12139e+00
       O  8.20378e+00 -9.52926e+00  6.13582e+00
       H  8.39564e+00 -9.51474e+00  4.31856e+00
       H  8.20221e+00 -7.73246e+00  6.69037e+00
       O -4.54344e+00 -2.16971e+00  6.13568e+00
       H -4.35161e+00 -2.15522e+00  4.31840e+00
       H -4.54506e+00 -3.72896e-01  6.69017e+00
       O -8.21947e+00  4.78210e+00 -1.31734e+01
       H  7.30974e+00  3.75335e+00 -1.36334e+01
       H -6.70314e+00  3.77651e+00 -1.35002e+01
       O -3.97046e+00  1.21415e+01 -1.31733e+01
       H -5.43745e+00  1.11127e+01 -1.36334e+01
       H -2.45410e+00  1.11360e+01 -1.35002e+01
       O -3.95479e+00  2.16971e+00 -7.82462e-01
       H -3.95303e+00  3.72884e-01 -2.27933e-01
       H -4.14646e+00  2.15509e+00 -2.59975e+00
       O -8.20376e+00  9.52923e+00 -7.82499e-01
       H -8.20200e+00  7.73238e+00 -2.27998e-01
       H -8.39546e+00  9.51472e+00 -2.59977e+00
       O -4.52774e+00  2.57749e+00 -6.25512e+00
       H -6.04400e+00  3.58312e+00 -6.58197e+00
       H -3.06066e+00  3.60618e+00 -6.71512e+00
       O  8.21949e+00  9.93715e+00 -6.25509e+00
       H  6.70318e+00  1.09426e+01 -6.58202e+00
       H -7.30970e+00  1.09659e+01 -6.71526e+00
       O  8.20366e+00  5.18988e+00 -7.70077e+00
       H  8.39552e+00  5.20437e+00 -9.51803e+00
       H  8.20217e+00  6.98669e+00 -7.14625e+00
       O -4.54337e+00  1.25494e+01 -7.70088e+00
       H -4.35159e+00  1.25639e+01 -9.51817e+00
       H -4.54500e+00  1.43462e+01 -7.14634e+00
       O -8.21952e+00  4.78190e+00  6.63226e-01
       H  7.30971e+00  3.75313e+00  2.03107e-01
       H -6.70317e+00  3.77635e+00  3.36440e-01
       O -3.97040e+00  1.21415e+01  6.63326e-01
       H -5.43738e+00  1.11127e+01  2.03185e-01
       H -2.45407e+00  1.11360e+01  3.36426e-01
       O -3.95476e+00  2.16964e+00  1.30541e+01
       H -3.95303e+00  3.72832e-01  1.36087e+01
       H -4.14651e+00  2.15510e+00  1.12369e+01
       O -8.20373e+00  9.52937e+00  1.30540e+01
       H -8.20206e+00  7.73252e+00  1.36085e+01
       H -8.39548e+00  9.51483e+00  1.12368e+01
       O -4.52770e+00  2.57756e+00  7.58140e+00
       H -6.04399e+00  3.58315e+00  7.25450e+00
       H -3.06066e+00  3.60630e+00  7.12138e+00
       O  8.21951e+00  9.93714e+00  7.58157e+00
       H  6.70319e+00  1.09427e+01  7.25463e+00
       H -7.30968e+00  1.09658e+01  7.12140e+00
       O  8.20369e+00  5.18993e+00  6.13578e+00
       H  8.39547e+00  5.20441e+00  4.31850e+00
       H  8.20212e+00  6.98674e+00  6.69030e+00
       O -4.54348e+00  1.25494e+01  6.13570e+00
       H -4.35158e+00  1.25639e+01  4.31845e+00
       H -4.54503e+00  1.43462e+01  6.69025e+00
       O  2.78573e-01 -9.93717e+00 -1.31734e+01
       H -1.18842e+00 -1.09659e+01 -1.36336e+01
       H  1.79493e+00 -1.09427e+01 -1.35002e+01
       O  4.52772e+00 -2.57751e+00 -1.31733e+01
       H  3.06068e+00 -3.60627e+00 -1.36334e+01
       H  6.04403e+00 -3.58305e+00 -1.35003e+01
       O  4.54334e+00 -1.25494e+01 -7.82465e-01
       H  4.54513e+00 -1.43463e+01 -2.27989e-01
       H  4.35168e+00 -1.25640e+01 -2.59974e+00
       O  2.94294e-01 -5.18980e+00 -7.82487e-01
       H  2.96032e-01 -6.98663e+00 -2.28053e-01
       H  1.02602e-01 -5.20427e+00 -2.59977e+00
       O  3.97042e+00 -1.21415e+01 -6.25517e+00
       H  2.45414e+00 -1.11359e+01 -6.58198e+00
       H  5.43747e+00 -1.11128e+01 -6.71526e+00
       O -2.78672e-01 -4.78194e+00 -6.25508e+00
       H -1.79498e+00 -3.77636e+00 -6.58199e+00
       H  1.18837e+00 -3.75320e+00 -6.71514e+00
       O -2.94511e-01 -9.52920e+00 -7.70081e+00
       H -1.02600e-01 -9.51466e+00 -9.51806e+00
       H -2.96005e-01 -7.73240e+00 -7.14625e+00
       O  3.95462e+00 -2.16972e+00 -7.70080e+00
       H  4.14654e+00 -2.15521e+00 -9.51804e+00
       H  3.95318e+00 -3.72879e-01 -7.14628e+00
       O  2.78541e-01 -9.93701e+00  6.63104e-01
       H -1.18842e+00 -1.09658e+01  2.03011e-01
       H  1.79493e+00 -1.09425e+01  3.36333e-01
       O  4.52773e+00 -2.57757e+00  6.63187e-01
       H  3.06068e+00 -3.60633e+00  2.03125e-01
       H  6.04402e+00 -3.58308e+00  3.36357e-01
       O  4.54332e+00 -1.25494e+01  1.30541e+01
       H  4.54518e+00 -1.43462e+01  1.36086e+01
       H  4.35169e+00 -1.25640e+01  1.12368e+01
       O  2.94281e-01 -5.18991e+00  1.30541e+01
       H  2.95995e-01 -6.98675e+00  1.36085e+01
       H  1.02570e-01 -5.20435e+00  1.12368e+01
       O  3.97044e+00 -1.21415e+01  7.58145e+00
       H  2.45413e+00 -1.11360e+01  7.25466e+00
       H  5.43745e+00 -1.11128e+01  7.12135e+00
       O -2.78601e-01 -4.78191e+00  7.58148e+00
       H -1.79495e+00 -3.77634e+00  7.25458e+00
       H  1.18839e+00 -3.75323e+00  7.12138e+00
       O -2.94501e-01 -9.52922e+00  6.13582e+00
       H -1.02637e-01 -9.51466e+00  4.31854e+00
       H -2.96013e-01 -7.73241e+00  6.69035e+00
       O  3.95462e+00 -2.16967e+00  6.13570e+00
       H  4.14656e+00 -2.15516e+00  4.31844e+00
       H  3.95315e+00 -3.72836e-01  6.69024e+00
       O  2.78636e-01  4.78206e+00 -1.31735e+01
       H -1.18832e+00  3.75329e+00 -1.36335e+01
       H  1.79499e+00  3.77651e+00 -1.35003e+01
       O  4.52773e+00  1.21415e+01 -1.31733e+01
       H  3.06066e+00  1.11127e+01 -1.36334e+01
       H  6.04403e+00  1.11360e+01 -1.35003e+01
       O  4.54332e+00  2.16970e+00 -7.82499e-01
       H  4.54510e+00  3.72872e-01 -2.27973e-01
       H  4.35161e+00  2.15513e+00 -2.59979e+00
       O  2.94188e-01  9.52923e+00 -7.82517e-01
       H  2.95976e-01  7.73239e+00 -2.28033e-01
       H  1.02486e-01  9.51470e+00 -2.59980e+00
       O  3.97041e+00  2.57752e+00 -6.25508e+00
       H  2.45414e+00  3.58307e+00 -6.58188e+00
       H  5.43747e+00  3.60626e+00 -6.71516e+00
       O -2.78677e-01  9.93714e+00 -6.25506e+00
       H -1.79497e+00  1.09427e+01 -6.58203e+00
       H  1.18838e+00  1.09659e+01 -6.71517e+00
       O -2.94451e-01  5.18990e+00 -7.70074e+00
       H -1.02475e-01  5.20442e+00 -9.51799e+00
       H -2.95971e-01  6.98671e+00 -7.14623e+00
       O  3.95453e+00  1.25494e+01 -7.70088e+00
       H  4.14650e+00  1.25638e+01 -9.51813e+00
       H  3.95314e+00  1.43462e+01 -7.14638e+00
       O  2.78666e-01  4.78190e+00  6.63181e-01
       H -1.18838e+00  3.75314e+00  2.03219e-01
       H  1.79499e+00  3.77637e+00  3.36305e-01
       O  4.52768e+00  1.21415e+01  6.63233e-01
       H  3.06065e+00  1.11127e+01  2.03130e-01
       H  6.04402e+00  1.11359e+01  3.36318e-01
       O  4.54337e+00  2.16963e+00  1.30541e+01
       H  4.54515e+00  3.72778e-01  1.36085e+01
       H  4.35165e+00  2.15511e+00  1.12368e+01
       O  2.94139e-01  9.52935e+00  1.30540e+01
       H  2.96028e-01  7.73252e+00  1.36085e+01
       H  1.02508e-01  9.51480e+00  1.12368e+01
       O  3.97044e+00  2.57752e+00  7.58146e+00
       H  2.45409e+00  3.58312e+00  7.25468e+00
       H  5.43745e+00  3.60627e+00  7.12136e+00
       O -2.78642e-01  9.93713e+00  7.58156e+00
       H -1.79498e+00  1.09426e+01  7.25459e+00
       H  1.18834e+00  1.09658e+01  7.12145e+00
       O -2.94462e-01  5.18993e+00  6.13575e+00
       H -1.02485e-01  5.20444e+00  4.31854e+00
       H -2.95928e-01  6.98677e+00  6.69031e+00
       O  3.95461e+00  1.25493e+01  6.13580e+00
       H  4.14651e+00  1.25638e+01  4.31854e+00
       H  3.95313e+00  1.43462e+01  6.69028e+00
192
# CELL(abcABC):   16.99620    29.43815    27.67315    90.00000    90.00000    90.00000  Step:          10  Bead:       7 positions{atomic_unit}  cell{atomic_unit}
       O -8.22750e+00 -9.92337e+00 -1.31513e+01
       H  7.25062e+00 -1.09410e+01 -1.35979e+01
       H -6.81338e+00 -1.08981e+01 -1.35856e+01
       O -3.97054e+00 -2.56899e+00 -1.31583e+01
       H -5.41703e+00 -3.80499e+00 -1.35431e+01
       H -2.38616e+00 -3.71977e+00 -1.36268e+01
       O -3.95657e+00 -1.25845e+01 -7.42393e-01
       H -3.96545e+00 -1.43217e+01 -8.24038e-02
       H -4.13773e+00 -1.27063e+01 -2.54886e+00
       O -8.18840e+00 -5.18675e+00 -7.81909e-01
       H -8.12738e+00 -7.05545e+00 -1.02489e-01
       H -8.49538e+00 -5.23375e+00 -2.61586e+00
       O -4.51851e+00 -1.21327e+01 -6.24460e+00
       H -6.08228e+00 -1.12312e+01 -6.56147e+00
       H -3.02634e+00 -1.12062e+01 -6.76078e+00
       O  8.23482e+00 -4.79258e+00 -6.26019e+00
       H  6.79011e+00 -3.70760e+00 -6.62492e+00
       H -7.44575e+00 -3.75176e+00 -6.67157e+00
       O  8.20727e+00 -9.51403e+00 -7.67423e+00
       H  8.41560e+00 -9.48785e+00 -9.63296e+00
       H  8.23712e+00 -7.74451e+00 -7.20763e+00
       O -4.56493e+00 -2.16490e+00 -7.72439e+00
       H -4.35170e+00 -2.14595e+00 -9.51415e+00
       H -4.53983e+00 -3.72186e-01 -7.14958e+00
       O -8.25015e+00 -9.97767e+00  6.82482e-01
       H  7.24555e+00 -1.09879e+01  2.18945e-01
       H -6.79841e+00 -1.09937e+01  3.22280e-01
       O -3.93089e+00 -2.57691e+00  6.67089e-01
       H -5.36308e+00 -3.63069e+00  3.58772e-01
       H -2.55337e+00 -3.57942e+00  5.09021e-01
       O -3.97421e+00 -1.25489e+01  1.30332e+01
       H -3.96335e+00 -1.44607e+01  1.35103e+01
       H -4.11585e+00 -1.25288e+01  1.12366e+01
       O -8.18908e+00 -5.19128e+00  1.30201e+01
       H -8.07173e+00 -7.03370e+00  1.34148e+01
       H -8.30752e+00 -5.15073e+00  1.11549e+01
       O -4.53063e+00 -1.21428e+01  7.60469e+00
       H -6.07640e+00 -1.10528e+01  7.15793e+00
       H -3.16538e+00 -1.10333e+01  7.17413e+00
       O  8.24733e+00 -4.79124e+00  7.62090e+00
       H  6.76520e+00 -3.90392e+00  7.36649e+00
       H -7.29579e+00 -3.81605e+00  7.22450e+00
       O  8.17906e+00 -9.52006e+00  6.15975e+00
       H  8.26365e+00 -9.47162e+00  4.12204e+00
       H  8.03926e+00 -7.73258e+00  6.68244e+00
       O -4.56644e+00 -2.16779e+00  6.11682e+00
       H -4.39406e+00 -1.99060e+00  4.33402e+00
       H -4.41682e+00 -2.55926e-01  6.72556e+00
       O -8.23474e+00  4.75453e+00 -1.31724e+01
       H  7.26295e+00  3.67557e+00 -1.36759e+01
       H -6.82050e+00  3.85578e+00 -1.35519e+01
       O -3.97401e+00  1.21404e+01 -1.31576e+01
       H -5.57150e+00  1.12514e+01 -1.36855e+01
       H -2.29635e+00  1.12869e+01 -1.33795e+01
       O -3.94215e+00  2.15139e+00 -8.10655e-01
       H -3.98824e+00  3.93583e-01 -1.59095e-01
       H -4.23018e+00  2.21074e+00 -2.73761e+00
       O -8.18329e+00  9.52305e+00 -7.81442e-01
       H -8.21965e+00  7.92313e+00 -2.44162e-01
       H -8.34074e+00  9.75274e+00 -2.58505e+00
       O -4.51909e+00  2.61187e+00 -6.26818e+00
       H -5.94271e+00  3.49778e+00 -6.49208e+00
       H -3.12475e+00  3.52618e+00 -6.78448e+00
       O  8.24941e+00  9.93848e+00 -6.27235e+00
       H  6.73233e+00  1.07912e+01 -6.50435e+00
       H -7.23422e+00  1.10196e+01 -6.61163e+00
       O  8.19890e+00  5.17578e+00 -7.74839e+00
       H  8.38723e+00  5.11279e+00 -9.41608e+00
       H  8.33954e+00  6.90995e+00 -7.20421e+00
       O -4.59473e+00  1.25751e+01 -7.72168e+00
       H -4.42313e+00  1.25108e+01 -9.45706e+00
       H -4.73993e+00  1.45510e+01 -7.18984e+00
       O -8.23109e+00  4.82550e+00  6.82741e-01
       H  7.27375e+00  3.76941e+00  1.26265e-01
       H -6.75628e+00  3.65900e+00  3.56134e-01
       O -3.95569e+00  1.21227e+01  6.96055e-01
       H -5.43724e+00  1.12324e+01  3.48961e-01
       H -2.56293e+00  1.12445e+01  3.21241e-01
       O -3.99150e+00  2.16708e+00  1.30109e+01
       H -3.95371e+00  3.92742e-01  1.35887e+01
       H -4.26218e+00  2.20532e+00  1.13513e+01
       O -8.21108e+00  9.47867e+00  1.30753e+01
       H -8.33260e+00  7.62675e+00  1.37137e+01
       H -8.41382e+00  9.62393e+00  1.09995e+01
       O -4.52891e+00  2.55125e+00  7.58182e+00
       H -6.13057e+00  3.70329e+00  7.28624e+00
       H -2.91719e+00  3.51940e+00  7.08227e+00
       O  8.20406e+00  9.93815e+00  7.56108e+00
       H  6.58867e+00  1.10172e+01  7.33019e+00
       H -7.34705e+00  1.09917e+01  7.00052e+00
       O  8.21394e+00  5.20002e+00  6.08537e+00
       H  8.46520e+00  5.22608e+00  4.20538e+00
       H  8.16920e+00  6.87601e+00  6.81852e+00
       O -4.52108e+00  1.25611e+01  6.12852e+00
       H -4.27468e+00  1.27386e+01  4.41325e+00
       H -4.53052e+00  1.42578e+01  6.85908e+00
       O  2.70434e-01 -9.92586e+00 -1.31458e+01
       H -1.14336e+00 -1.10496e+01 -1.35478e+01
       H  1.65719e+00 -1.09899e+01 -1.35139e+01
       O  4.55991e+00 -2.56252e+00 -1.31649e+01
       H  2.98769e+00 -3.69146e+00 -1.35699e+01
       H  6.08552e+00 -3.63259e+00 -1.35719e+01
       O  4.56586e+00 -1.25580e+01 -7.75755e-01
       H  4.44259e+00 -1.45248e+01 -1.89247e-01
       H  4.23161e+00 -1.24120e+01 -2.59937e+00
       O  2.58292e-01 -5.17474e+00 -7.62867e-01
       H  2.62252e-01 -7.00160e+00 -1.18790e-01
       H  6.35312e-02 -5.20209e+00 -2.52592e+00
       O  4.00718e+00 -1.21180e+01 -6.24785e+00
       H  2.42740e+00 -1.11993e+01 -6.57230e+00
       H  5.44072e+00 -1.11443e+01 -6.72011e+00
       O -2.63739e-01 -4.82656e+00 -6.24158e+00
       H -1.93308e+00 -3.67958e+00 -6.65669e+00
       H  1.18901e+00 -3.84992e+00 -6.75584e+00
       O -2.91258e-01 -9.53603e+00 -7.70112e+00
       H -7.42046e-02 -9.39039e+00 -9.42958e+00
       H -3.78866e-01 -7.72918e+00 -7.20040e+00
       O  3.92903e+00 -2.15817e+00 -7.67302e+00
       H  4.21181e+00 -2.22601e+00 -9.48824e+00
       H  3.92259e+00 -5.01814e-01 -7.16711e+00
       O  2.68043e-01 -9.94055e+00  6.82363e-01
       H -1.14877e+00 -1.09360e+01  8.32343e-02
       H  1.82532e+00 -1.09701e+01  2.04770e-01
       O  4.56532e+00 -2.56438e+00  6.72910e-01
       H  3.14005e+00 -3.69597e+00  2.32364e-01
       H  5.94776e+00 -3.46505e+00  4.12170e-01
       O  4.56143e+00 -1.25350e+01  1.30777e+01
       H  4.48782e+00 -1.44299e+01  1.34915e+01
       H  4.14065e+00 -1.26490e+01  1.13348e+01
       O  2.94747e-01 -5.18812e+00  1.30730e+01
       H  2.84963e-01 -6.99423e+00  1.35031e+01
       H -8.78791e-03 -5.29611e+00  1.12411e+01
       O  3.97853e+00 -1.21344e+01  7.59223e+00
       H  2.45545e+00 -1.11910e+01  7.25888e+00
       H  5.27772e+00 -1.10490e+01  7.12431e+00
       O -2.13970e-01 -4.76104e+00  7.60465e+00
       H -1.86563e+00 -3.83604e+00  7.25704e+00
       H  1.33241e+00 -3.78535e+00  7.19405e+00
       O -3.21289e-01 -9.55361e+00  6.15689e+00
       H -1.91425e-01 -9.53279e+00  4.18149e+00
       H -2.02871e-01 -7.74829e+00  6.64880e+00
       O  3.98393e+00 -2.13079e+00  6.12727e+00
       H  4.22556e+00 -1.92369e+00  4.22351e+00
       H  3.92575e+00 -4.37583e-01  6.60384e+00
       O  2.48284e-01  4.80316e+00 -1.31642e+01
       H -1.18040e+00  3.67971e+00 -1.37246e+01
       H  1.80623e+00  3.70184e+00 -1.34961e+01
       O  4.54942e+00  1.21461e+01 -1.31833e+01
       H  3.07779e+00  1.09723e+01 -1.36364e+01
       H  6.00992e+00  1.10885e+01 -1.34382e+01
       O  4.52964e+00  2.22041e+00 -7.97757e-01
       H  4.54604e+00  4.52610e-01 -2.71745e-01
       H  4.32985e+00  2.06247e+00 -2.63414e+00
       O  2.69211e-01  9.52151e+00 -7.82317e-01
       H  2.60057e-01  7.66587e+00 -3.87775e-01
       H  3.76677e-01  9.54329e+00 -2.68179e+00
       O  3.99196e+00  2.54412e+00 -6.25348e+00
       H  2.47414e+00  3.52469e+00 -6.66296e+00
       H  5.27544e+00  3.77308e+00 -6.59328e+00
       O -2.72831e-01  9.93533e+00 -6.26639e+00
       H -1.98916e+00  1.09604e+01 -6.66754e+00
       H  1.27965e+00  1.11131e+01 -6.59727e+00
       O -3.52313e-01  5.18971e+00 -7.70333e+00
       H -4.13736e-02  5.10523e+00 -9.51334e+00
       H -3.70425e-01  6.97801e+00 -7.05305e+00
       O  3.92225e+00  1.25716e+01 -7.70092e+00
       H  4.28674e+00  1.27198e+01 -9.56444e+00
       H  3.78792e+00  1.43473e+01 -6.98239e+00
       O  2.25298e-01  4.76276e+00  6.37774e-01
       H -1.18804e+00  3.59571e+00  3.15764e-01
       H  1.86826e+00  3.72705e+00  4.00004e-01
       O  4.51476e+00  1.21194e+01  6.76001e-01
       H  3.23857e+00  1.10250e+01  1.76032e-01
       H  6.17628e+00  1.11620e+01  4.26808e-01
       O  4.53995e+00  2.18817e+00  1.30120e+01
       H  4.47903e+00  3.88658e-01  1.35948e+01
       H  4.42610e+00  2.11376e+00  1.11330e+01
       O  3.19382e-01  9.49795e+00  1.30551e+01
       H  3.47751e-01  7.87871e+00  1.36136e+01
       H  4.94493e-02  9.46009e+00  1.12365e+01
       O  3.95573e+00  2.55866e+00  7.57739e+00
       H  2.37917e+00  3.56337e+00  7.31368e+00
       H  5.57158e+00  3.53943e+00  7.15778e+00
       O -2.29738e-01  9.92677e+00  7.60312e+00
       H -1.73417e+00  1.09126e+01  7.24957e+00
       H  1.13579e+00  1.09309e+01  7.26219e+00
       O -2.45322e-01  5.19355e+00  6.12472e+00
       H -1.08397e-01  5.24788e+00  4.36129e+00
       H -1.79998e-01  7.00716e+00  6.70549e+00
       O  3.94710e+00  1.25178e+01  6.15125e+00
       H  3.99493e+00  1.26621e+01  4.20387e+00
       H  3.76233e+00  1.43614e+01  6.56208e+00
192
# CELL(abcABC):   16.99620    29.43815    27.67315    90.00000    90.00000    90.00000  Step:          20  Bead:       7 positions{atomic_unit}  cell{atomic_unit}
       O -8.23912e+00 -9.91503e+00 -1.31216e+01
       H  7.24989e+00 -1.09977e+01 -1.36519e+01
       H -6.75652e+00 -1.11151e+01 -1.36549e+01
       O -3.98484e+00 -2.58455e+00 -1.32015e+01
       H -5.46807e+00 -3.72767e+00 -1.35854e+01
       H -2.47396e+00 -3.60800e+00 -1.37027e+01
       O -3.97504e+00 -1.25662e+01 -7.25278e-01
       H -3.93738e+00 -1.44180e+01 -3.51419e-02
       H -4.30459e+00 -1.27153e+01 -2.54603e+00
       O -8.24346e+00 -5.17310e+00 -8.15892e-01
       H -8.05545e+00 -7.08829e+00 -1.26864e-01
       H -8.61087e+00 -5.11728e+00 -2.56724e+00
       O -4.50962e+00 -1.21397e+01 -6.22178e+00
       H -6.07400e+00 -1.11968e+01 -6.62327e+00
       H -2.91352e+00 -1.12509e+01 -6.89202e+00
       O  8.23619e+00 -4.77489e+00 -6.27825e+00
       H  6.75376e+00 -3.58529e+00 -6.63947e+00
       H -7.29543e+00 -3.71563e+00 -6.59440e+00
       O  8.17737e+00 -9.54559e+00 -7.68528e+00
       H  8.47652e+00 -9.58180e+00 -9.43967e+00
       H  8.15695e+00 -7.97848e+00 -7.15260e+00
       O -4.59402e+00 -2.13949e+00 -7.70786e+00
       H -4.16370e+00 -2.18389e+00 -9.62914e+00
       H -4.61055e+00 -3.90046e-01 -7.05728e+00
       O -8.27790e+00 -9.94636e+00  6.93880e-01
       H  7.12194e+00 -1.10279e+01  3.14180e-01
       H -6.69490e+00 -1.09869e+01  1.68547e-01
       O -3.92269e+00 -2.57990e+00  6.91689e-01
       H -5.34837e+00 -3.65407e+00  4.16418e-01
       H -2.49809e+00 -3.59070e+00  4.82513e-01
       O -3.95437e+00 -1.25213e+01  1.30470e+01
       H -3.92419e+00 -1.43719e+01  1.35860e+01
       H -4.13263e+00 -1.26652e+01  1.10766e+01
       O -8.18902e+00 -5.17129e+00  1.30101e+01
       H -7.88679e+00 -7.04971e+00  1.34579e+01
       H -8.41478e+00 -5.33990e+00  1.10632e+01
       O -4.51271e+00 -1.21628e+01  7.61025e+00
       H -5.99052e+00 -1.10817e+01  7.23031e+00
       H -3.14714e+00 -1.10114e+01  7.40152e+00
       O  8.26074e+00 -4.79380e+00  7.62763e+00
       H  6.65581e+00 -3.94489e+00  7.44516e+00
       H -7.18182e+00 -3.68627e+00  7.18501e+00
       O  8.14693e+00 -9.54690e+00  6.16956e+00
       H  8.31577e+00 -9.56293e+00  4.28256e+00
       H  7.94869e+00 -7.95830e+00  6.82098e+00
       O -4.59433e+00 -2.16593e+00  6.10849e+00
       H -4.38564e+00 -1.76441e+00  4.40239e+00
       H -4.53091e+00 -4.69277e-01  6.53370e+00
       O -8.27583e+00  4.75068e+00 -1.32300e+01
       H  7.39294e+00  3.80112e+00 -1.37418e+01
       H -6.89075e+00  3.83915e+00 -1.34689e+01
       O -3.96472e+00  1.21377e+01 -1.31540e+01
       H -5.43018e+00  1.11951e+01 -1.37178e+01
       H -2.45065e+00  1.13435e+01 -1.32832e+01
       O -3.93803e+00  2.19817e+00 -8.25682e-01
       H -4.04473e+00  4.28852e-01 -1.32221e-01
       H -4.36735e+00  2.14499e+00 -2.57567e+00
       O -8.19974e+00  9.53051e+00 -7.66599e-01
       H -8.17844e+00  7.95592e+00 -3.52304e-01
       H -8.34099e+00  9.75879e+00 -2.48390e+00
       O -4.53008e+00  2.62168e+00 -6.30291e+00
       H -6.01801e+00  3.67621e+00 -6.50542e+00
       H -3.08807e+00  3.54689e+00 -6.70939e+00
       O  8.26012e+00  9.92376e+00 -6.27620e+00
       H  6.77524e+00  1.08619e+01 -6.38689e+00
       H -7.15748e+00  1.11610e+01 -6.61877e+00
       O  8.18633e+00  5.20869e+00 -7.74433e+00
       H  8.50781e+00  5.20390e+00 -9.55261e+00
       H  8.47190e+00  6.88832e+00 -7.17044e+00
       O -4.59032e+00  1.25517e+01 -7.73235e+00
       H -4.52763e+00  1.25428e+01 -9.39721e+00
       H -4.79278e+00  1.46222e+01 -7.23065e+00
       O -8.24201e+00  4.81530e+00  6.73292e-01
       H  7.27383e+00  3.84715e+00  1.97960e-01
       H -6.80018e+00  3.59148e+00  3.58770e-01
       O -3.98337e+00  1.21401e+01  6.57200e-01
       H -5.45630e+00  1.11247e+01  2.12093e-01
       H -2.45795e+00  1.11164e+01  1.86347e-01
       O -4.00595e+00  2.09535e+00  1.30118e+01
       H -3.82154e+00  3.53914e-01  1.36445e+01
       H -4.41995e+00  2.28919e+00  1.13423e+01
       O -8.17280e+00  9.43686e+00  1.30494e+01
       H -8.22516e+00  7.44694e+00  1.35817e+01
       H -8.37151e+00  9.41906e+00  1.10400e+01
       O -4.52767e+00  2.53134e+00  7.59807e+00
       H -6.06735e+00  3.51949e+00  7.24746e+00
       H -2.87252e+00  3.55116e+00  7.14675e+00
       O  8.20409e+00  9.95159e+00  7.53053e+00
       H  6.62839e+00  1.09759e+01  7.32160e+00
       H -7.33936e+00  1.08120e+01  7.00522e+00
       O  8.20319e+00  5.21578e+00  6.10815e+00
       H  8.45154e+00  5.30248e+00  4.15167e+00
       H  8.35913e+00  6.77973e+00  6.77436e+00
       O -4.51892e+00  1.25590e+01  6.09773e+00
       H -4.24019e+00  1.28887e+01  4.36189e+00
       H -4.65065e+00  1.43736e+01  6.99543e+00
       O  2.85484e-01 -9.92282e+00 -1.31470e+01
       H -1.30090e+00 -1.11279e+01 -1.33247e+01
       H  1.50077e+00 -1.10284e+01 -1.36263e+01
       O  4.56183e+00 -2.52936e+00 -1.31575e+01
       H  3.04021e+00 -3.68912e+00 -1.34762e+01
       H  6.17482e+00 -3.69590e+00 -1.33996e+01
       O  4.56891e+00 -1.25901e+01 -8.11032e-01
       H  4.53659e+00 -1.45041e+01 -9.59685e-02
       H  4.33682e+00 -1.26380e+01 -2.78422e+00
       O  2.81313e-01 -5.20784e+00 -7.79732e-01
       H  2.90190e-01 -6.89207e+00 -5.74871e-02
       H  8.67737e-02 -5.22892e+00 -2.61782e+00
       O  3.97619e+00 -1.21051e+01 -6.22130e+00
       H  2.27441e+00 -1.11844e+01 -6.66075e+00
       H  5.50082e+00 -1.11367e+01 -6.90330e+00
       O -2.70567e-01 -4.81153e+00 -6.20605e+00
       H -1.80318e+00 -3.51715e+00 -6.79110e+00
       H  1.16137e+00 -3.90965e+00 -6.64531e+00
       O -2.74821e-01 -9.54189e+00 -7.69499e+00
       H -1.75956e-01 -9.49337e+00 -9.45333e+00
       H -2.90597e-01 -7.73037e+00 -7.07727e+00
       O  3.87350e+00 -2.17669e+00 -7.69015e+00
       H  4.12354e+00 -2.26317e+00 -9.49354e+00
       H  3.90508e+00 -5.68746e-01 -7.17379e+00
       O  2.59651e-01 -9.94868e+00  6.79098e-01
       H -1.22879e+00 -1.09812e+01  6.16383e-02
       H  1.81839e+00 -1.07803e+01  2.80586e-01
       O  4.57187e+00 -2.51737e+00  6.52325e-01
       H  3.01308e+00 -3.75743e+00  3.60126e-01
       H  6.11878e+00 -3.41456e+00  3.89913e-01
       O  4.58531e+00 -1.25233e+01  1.30930e+01
       H  4.61343e+00 -1.44099e+01  1.34234e+01
       H  3.99104e+00 -1.25941e+01  1.12951e+01
       O  2.88354e-01 -5.19378e+00  1.30928e+01
       H  1.40068e-01 -7.11714e+00  1.34988e+01
       H -2.95346e-02 -5.35098e+00  1.11235e+01
       O  3.99128e+00 -1.21481e+01  7.52813e+00
       H  2.41357e+00 -1.11459e+01  7.32238e+00
       H  5.35066e+00 -1.07518e+01  7.05832e+00
       O -2.01398e-01 -4.79183e+00  7.61860e+00
       H -1.78932e+00 -3.74818e+00  7.16630e+00
       H  1.33035e+00 -3.70477e+00  7.05674e+00
       O -2.99614e-01 -9.53220e+00  6.16336e+00
       H -1.81380e-01 -9.50695e+00  4.32767e+00
       H -2.57168e-01 -7.65173e+00  6.56523e+00
       O  4.02132e+00 -2.17972e+00  6.11162e+00
       H  4.21986e+00 -2.01944e+00  4.34466e+00
       H  3.91743e+00 -6.25148e-01  6.44662e+00
       O  2.31428e-01  4.80753e+00 -1.31187e+01
       H -1.23320e+00  3.81244e+00 -1.39013e+01
       H  1.70731e+00  3.83406e+00 -1.36520e+01
       O  4.55706e+00  1.21209e+01 -1.31575e+01
       H  3.14533e+00  1.08262e+01 -1.38174e+01
       H  5.96039e+00  1.11148e+01 -1.33960e+01
       O  4.50258e+00  2.22679e+00 -8.29632e-01
       H  4.65893e+00  5.28718e-01 -2.42316e-01
       H  4.14176e+00  2.07113e+00 -2.48700e+00
       O  2.75393e-01  9.51424e+00 -7.83998e-01
       H  1.80210e-01  7.50231e+00 -3.62539e-01
       H  2.40248e-01  9.56472e+00 -2.56358e+00
       O  3.94516e+00  2.54618e+00 -6.19194e+00
       H  2.58534e+00  3.72705e+00 -6.54607e+00
       H  5.33506e+00  3.75119e+00 -6.64677e+00
       O -2.69154e-01  9.97578e+00 -6.22776e+00
       H -1.86547e+00  1.08198e+01 -6.66291e+00
       H  1.18599e+00  1.10904e+01 -6.69523e+00
       O -3.55340e-01  5.16368e+00 -7.69624e+00
       H -6.27577e-02  5.06969e+00 -9.50316e+00
       H -3.10192e-01  6.94912e+00 -7.01013e+00
       O  3.94378e+00  1.25944e+01 -7.70740e+00
       H  4.38051e+00  1.27145e+01 -9.57252e+00
       H  3.83149e+00  1.42030e+01 -6.90750e+00
       O  2.30235e-01  4.76599e+00  6.54842e-01
       H -1.14591e+00  3.56965e+00  2.58154e-01
       H  1.73644e+00  3.68400e+00  6.02719e-01
       O  4.51156e+00  1.20738e+01  7.03913e-01
       H  3.01773e+00  1.10498e+01  2.70415e-01
       H  6.24328e+00  1.13352e+01  4.66840e-01
       O  4.50778e+00  2.23287e+00  1.29944e+01
       H  4.52468e+00  2.30579e-01  1.35845e+01
       H  4.31125e+00  1.96769e+00  1.11340e+01
       O  3.21677e-01  9.44641e+00  1.29862e+01
       H  3.42810e-01  7.80781e+00  1.37784e+01
       H -3.28734e-02  9.52308e+00  1.12834e+01
       O  3.97174e+00  2.56662e+00  7.58878e+00
       H  2.45101e+00  3.42073e+00  7.22649e+00
       H  5.63724e+00  3.51181e+00  7.14112e+00
       O -1.97163e-01  9.88098e+00  7.66970e+00
       H -1.80565e+00  1.08025e+01  7.23909e+00
       H  1.07112e+00  1.10934e+01  7.46942e+00
       O -2.69332e-01  5.19483e+00  6.11536e+00
       H -1.29306e-01  5.26885e+00  4.29532e+00
       H -1.88860e-01  6.85950e+00  6.67547e+00
       O  4.03639e+00  1.25273e+01  6.12781e+00
       H  3.99881e+00  1.27903e+01  4.40297e+00
       H  3.67457e+00  1.44700e+01  6.50789e+00
192
# CELL(abcABC):   16.99620    29.43815    27.67315    90.00000    90.00000    90.00000  Step:          30  Bead:       7 positions{atomic_unit}  cell{atomic_unit}
       O -8.24953e+00 -9.93050e+00 -1.31001e+01
       H  7.11025e+00 -1.09490e+01 -1.36123e+01
       H -6.71447e+00 -1.11649e+01 -1.37621e+01
       O -4.00997e+00 -2.58527e+00 -1.32021e+01
       H -5.81599e+00 -3.71553e+00 -1.36895e+01
       H -2.47355e+00 -3.49419e+00 -1.38120e+01
       O -3.98803e+00 -1.25538e+01 -7.76133e-01
       H -3.95852e+00 -1.44405e+01 -9.54555e-03
       H -4.28010e+00 -1.29568e+01 -2.59390e+00
       O -8.24465e+00 -5.13537e+00 -8.28552e-01
       H -8.03581e+00 -6.94791e+00 -6.44684e-02
       H -8.63822e+00 -5.01806e+00 -2.49939e+00
       O -4.50209e+00 -1.21532e+01 -6.20320e+00
       H -5.90073e+00 -1.11826e+01 -6.57810e+00
       H -2.73501e+00 -1.11758e+01 -6.88703e+00
       O  8.24445e+00 -4.74023e+00 -6.27896e+00
       H  6.86047e+00 -3.50152e+00 -6.58457e+00
       H -7.02468e+00 -3.69393e+00 -6.50691e+00
       O  8.14015e+00 -9.58036e+00 -7.63071e+00
       H  8.36523e+00 -9.27173e+00 -9.36257e+00
       H  8.09128e+00 -7.97921e+00 -7.33484e+00
       O -4.60402e+00 -2.14342e+00 -7.67802e+00
       H -4.04111e+00 -2.10364e+00 -9.67841e+00
       H -4.82087e+00 -3.76526e-01 -6.91555e+00
       O -8.31377e+00 -9.91074e+00  6.52034e-01
       H  7.16049e+00 -1.09905e+01  4.31353e-01
       H -6.77096e+00 -1.09864e+01  1.43656e-01
       O -3.91908e+00 -2.56436e+00  7.44349e-01
       H -5.45569e+00 -3.76916e+00  2.43516e-01
       H -2.44601e+00 -3.60848e+00  4.42519e-01
       O -3.92847e+00 -1.24907e+01  1.30701e+01
       H -4.08279e+00 -1.44397e+01  1.36327e+01
       H -4.02858e+00 -1.26371e+01  1.10545e+01
       O -8.21809e+00 -5.18554e+00  1.30110e+01
       H -7.83491e+00 -7.01435e+00  1.33471e+01