192
# CELL(abcABC):   16.99620    29.43815    27.67315    90.00000    90.00000    90.00000  Step:           0  Bead:      11 velocities{atomic_unit}  cell{atomic_unit}
       O  1.33877e-03 -1.66618e-03 -5.78921e-04
       H -1.11705e-03 -8.89134e-04 -2.08332e-03
       H  2.03525e-03 -3.00096e-03 -1.16219e-03
       O -1.72029e-04  3.34239e-04 -1.94018e-04
       H  2.14496e-03  5.79598e-03 -7.63920e-03
       H  2.49745e-04 -2.81504e-03  2.24935e-03
       O -9.34533e-04 -4.57510e-04 -4.03997e-05
       H -3.18281e-03 -4.83142e-03 -3.10821e-03
       H -5.15653e-04 -9.31818e-04  1.65531e-03
       O  6.31223e-04 -4.94111e-04 -7.06063e-04
       H  4.39862e-03  1.13746e-03 -8.19567e-03
       H  1.72313e-04 -2.88031e-03 -1.65379e-03
       O  6.36085e-04  1.19171e-04 -7.24814e-04
       H -2.75026e-04 -6.30194e-03 -3.41442e-03
       H  3.91353e-03  4.77538e-03  1.26940e-03
       O -1.18237e-03  8.67996e-04  3.73308e-04
       H  2.59066e-03  3.67935e-03 -1.71332e-03
       H  4.84341e-03  1.00951e-03  2.40025e-03
       O  4.49283e-04 -1.34290e-03 -2.96299e-04
       H  2.48310e-05 -2.07707e-03 -4.57442e-03
       H -2.10006e-03 -4.13935e-03 -4.90816e-03
       O -1.09034e-03  1.23553e-03  3.37369e-04
       H  1.73666e-04 -1.93927e-03 -3.10850e-03
       H -3.22039e-03 -2.96622e-03 -5.72762e-03
       O  1.18067e-03  8.64326e-04  2.41452e-04
       H -2.64622e-03  1.96661e-03 -6.43858e-03
       H -1.39236e-03  1.60230e-03 -1.02677e-02
       O -8.37013e-04 -1.13261e-03  7.54848e-05
       H  5.85810e-03  7.94478e-03  3.50311e-03
       H -3.94969e-03  5.07952e-04  5.48443e-03
       O -1.22778e-03  1.76238e-03  1.36988e-03
       H -3.74414e-03 -1.60982e-03 -6.88364e-03
       H  2.74192e-03 -3.32136e-03  2.19143e-03
       O  4.57946e-04  7.83524e-04  1.73627e-03
       H  4.62737e-03  1.10182e-03  5.35527e-03
       H  2.09653e-04 -4.49851e-03 -1.11873e-03
       O  2.16594e-04  2.63388e-04 -3.84598e-04
       H -4.78791e-03 -1.30810e-04  9.02215e-05
       H  5.18617e-03  2.18916e-03  6.86198e-03
       O -1.88409e-04  5.45147e-04 -9.79258e-04
       H  2.57496e-03 -2.29862e-04 -1.76409e-03
       H  1.77552e-03  9.66269e-03  4.55938e-03
       O -8.87072e-04 -1.45991e-03  1.25528e-04
       H -2.52477e-03 -4.37840e-03  6.03634e-03
       H -1.91564e-03 -7.20309e-04  1.92671e-03
       O -5.52834e-04  1.22815e-03 -1.37285e-04
       H  1.58860e-04 -2.75004e-03  4.14453e-03
       H  5.99269e-04 -4.19649e-03 -2.09929e-04
       O  4.96739e-04  5.22559e-04 -8.46218e-04
       H  1.73768e-04 -9.11147e-03 -1.79034e-03
       H -1.38352e-03  1.86368e-03  2.30998e-03
       O -2.85080e-04 -4.20522e-04  9.60243e-04
       H  3.88336e-03  1.38368e-03  1.08672e-03
       H  6.51508e-04  1.63939e-03 -6.34360e-04
       O  9.38984e-05  1.19383e-03  5.42345e-04
       H -1.46326e-03  1.83110e-03  5.26854e-03
       H -5.87505e-04  4.25186e-03 -4.32176e-03
       O  5.16197e-04 -1.89957e-03 -2.58941e-04
       H  6.67783e-03 -4.24542e-03  4.08496e-03
       H -2.66106e-03  2.41013e-04  3.46469e-04
       O -1.02933e-03 -6.46124e-04  4.96690e-04
       H  5.24824e-04 -4.93645e-03 -1.88367e-03
       H -3.78868e-03 -3.13295e-03  6.56139e-03
       O  9.77813e-04 -9.69550e-04 -5.52718e-05
       H  1.54086e-03  5.92383e-05 -1.93402e-03
       H -4.46509e-03 -1.96430e-03 -3.62621e-03
       O -2.12693e-03 -1.31394e-03  9.71733e-04
       H -2.90648e-03 -4.77266e-03  2.06090e-03
       H  7.84658e-04 -6.51191e-03 -2.94933e-03
       O  6.43725e-04  4.84249e-04  1.08570e-03
       H  1.33516e-03 -3.46423e-03  7.57097e-03
       H -7.00325e-03  7.48427e-04 -3.17053e-03
       O -3.99585e-04 -5.48177e-04  3.68028e-05
       H -2.19943e-03  6.58142e-04 -8.37205e-05
       H -3.33986e-04  1.52550e-03 -2.96909e-03
       O  6.04518e-04 -1.20717e-03  5.91139e-04
       H  5.36674e-03 -6.56472e-04 -3.17368e-03
       H -3.45654e-03 -2.06046e-05  1.09613e-03
       O  1.32978e-03 -1.46425e-03  3.40184e-04
       H  4.93466e-03 -2.94860e-03 -5.45840e-04
       H -1.30766e-03 -4.92593e-03  5.56417e-03
       O  1.44790e-03  7.83619e-04 -9.55331e-04
       H  1.13257e-03  2.91005e-03 -2.31701e-03
       H -2.27454e-03  1.08039e-03  3.28565e-03
       O  1.84388e-04  1.23821e-03  1.26957e-04
       H -3.22087e-03  4.32042e-03  7.34958e-04
       H  5.89494e-04 -4.09443e-03 -1.79558e-03
       O  6.92098e-05  6.31465e-04 -1.61392e-04
       H  3.07630e-03 -4.83011e-03  9.20227e-04
       H  9.69194e-03  1.25438e-03  1.62750e-03
       O  3.68903e-04 -4.60432e-04  6.40728e-04
       H -4.95229e-03  3.77759e-03  2.96837e-03
       H -6.26959e-03  2.72275e-04  5.87251e-03
       O -4.85019e-04 -1.53769e-03  3.89130e-04
       H  1.16948e-03  1.78413e-03  1.08370e-03
       H  6.56789e-03  1.31822e-03  1.14724e-02
       O -7.29325e-04 -1.05770e-04 -1.12397e-03
       H  2.81591e-03 -1.67781e-03  3.33308e-04
       H -6.41877e-04  6.83591e-04 -3.70423e-03
       O  6.20101e-04  1.68731e-04  2.96674e-03
       H  7.31243e-03  1.77437e-05  4.53589e-06
       H -5.53323e-04  1.49037e-03  3.94500e-03
       O  7.07102e-04 -6.93112e-04  6.27741e-04
       H  6.52906e-03  5.26010e-03  6.22320e-03
       H -2.54289e-03 -6.02292e-03  7.71795e-03
       O -5.51246e-04 -6.70729e-05  7.98006e-04
       H -2.79864e-03 -2.96329e-03  3.62681e-03
       H -1.49898e-03  3.78669e-04  1.96660e-03
       O  2.41865e-03 -1.45693e-04  9.00647e-04
       H -4.03411e-03  3.10806e-04 -5.46507e-03
       H  9.45814e-04  4.47784e-03 -6.21966e-05
       O  2.77912e-03 -9.04864e-04 -5.74657e-05
       H -6.29569e-03 -1.52845e-03 -1.41524e-03
       H -1.22774e-03 -4.02513e-03  3.27299e-04
       O  7.62225e-04 -1.31370e-03 -7.76478e-04
       H -1.89606e-03 -3.65154e-03  5.04736e-04
       H  1.43763e-03 -1.09686e-03 -1.98522e-03
       O  2.71429e-04  6.17083e-04 -1.72757e-03
       H  6.70774e-04 -2.75023e-03 -2.89466e-03
       H  3.20862e-04  3.97910e-03 -3.79628e-03
       O  6.38797e-04  7.98297e-04  1.05780e-03
       H  2.95452e-03 -5.20383e-04 -1.10861e-03
       H -3.85185e-03 -2.47060e-03 -3.04383e-03
       O -3.64040e-04  1.60722e-04  4.52810e-04
       H  8.01120e-03 -1.22403e-03 -3.44625e-03
       H  4.28404e-03 -1.08198e-03  3.37968e-03
       O  1.25517e-03  2.12721e-04 -3.54917e-04
       H -3.70598e-03 -1.75412e-03  3.55341e-03
       H -2.01143e-03  4.28165e-03  7.75226e-03
       O -2.86115e-04  5.54260e-04 -2.60157e-04
       H  2.15906e-03 -1.97885e-04 -3.14433e-04
       H  3.51029e-03 -3.39242e-03 -2.26889e-03
       O  1.10639e-03  4.61547e-04 -8.74199e-04
       H  2.23111e-03 -5.18864e-04 -5.74096e-04
       H -7.66516e-03 -3.60738e-03  1.07253e-03
       O  6.93988e-04  5.65255e-04 -5.56842e-05
       H -2.69925e-03  3.76119e-04  1.36491e-03
       H -8.91976e-04 -1.42239e-03 -3.37846e-03
       O  2.98052e-04  1.37077e-03  1.11476e-03
       H -3.50278e-03  6.56567e-03 -4.91929e-03
       H -5.03307e-04  1.04723e-03  4.22807e-03
       O -4.85787e-04 -1.68234e-03 -1.01478e-03
       H -6.29163e-03  3.84781e-03  1.00742e-03
       H  4.11728e-03 -2.08305e-03 -2.14773e-03
       O  2.32357e-05  5.40696e-06 -1.48449e-03
       H -6.05178e-04  4.07021e-03 -6.28596e-03
       H -1.26481e-03  3.85124e-03 -5.20112e-03
       O  1.80072e-03  7.92961e-05 -5.78208e-04
       H  7.00456e-03 -2.10712e-03  3.12149e-03
       H  4.17053e-03  2.63221e-03  1.77866e-03
       O -3.21108e-04  2.76966e-04 -9.59149e-04
       H -2.03184e-03  4.26323e-03  4.56124e-04
       H -5.39575e-04  2.95311e-03  3.97813e-03
       O -1.69189e-04 -7.53088e-04  1.25858e-03
       H  1.68699e-03 -4.61810e-03  7.42049e-04
       H -5.77001e-03 -3.92774e-03 -4.49535e-03
       O  1.48266e-03 -4.83199e-05 -7.18145e-04
       H  5.24492e-03 -6.44136e-03  5.41776e-04
       H  3.60007e-03  6.35017e-04 -1.36369e-03
       O -2.14789e-04 -5.33100e-04 -5.30989e-04
       H  2.85736e-03  1.10760e-03 -3.15147e-03
       H  3.15196e-03  4.00380e-03 -2.72126e-03
       O -5.43190e-04  2.11558e-04 -2.08644e-04
       H  5.47800e-03 -5.60295e-03  7.02128e-03
       H -5.72083e-03  1.38257e-03 -3.20102e-03
       O  1.92886e-07 -2.40279e-04 -8.29028e-04
       H  4.00870e-03  8.18758e-03 -4.15775e-04
       H  9.56976e-04 -4.78533e-03 -3.54235e-03
       O  5.15667e-04  3.19027e-04  1.45926e-04
       H -4.25049e-03 -2.76792e-03 -1.13243e-03
       H -4.90500e-03 -1.84572e-03  3.91858e-03
       O  7.39586e-04  3.90481e-05 -8.54406e-04
       H -9.11776e-04 -3.64768e-03  4.08229e-03
       H  5.30152e-03  3.26451e-03  2.53053e-03
       O -8.98155e-04 -7.70488e-04  1.92665e-04
       H -1.45465e-03 -3.45364e-03 -1.11160e-03
       H  2.12215e-03 -7.70292e-03  7.93496e-04
       O  5.99860e-04  1.44579e-04 -2.27686e-03
       H -3.37409e-03  2.18075e-03  4.33057e-03
       H  2.70509e-03  7.92375e-04 -4.71703e-03
       O -7.08204e-04 -5.89311e-04  9.23674e-04
       H -2.11578e-04  2.09746e-03 -7.32479e-03
       H  6.92756e-03 -4.18040e-04 -2.34416e-04
       O  1.61007e-03 -3.31286e-04  7.26435e-04
       H  3.30530e-03 -8.50980e-04 -2.44492e-04
       H -4.54101e-04  1.13910e-03 -2.08555e-04
       O -8.89888e-04 -1.59239e-04 -2.19701e-04
       H -6.04215e-04  2.20819e-03  3.93685e-03
       H  2.67051e-03  4.23203e-04 -8.06856e-03
       O -5.71813e-04  1.23163e-03 -8.87540e-04
       H  2.80595e-03 -3.06359e-03  1.39466e-03
       H  1.34501e-03 -4.39320e-03  6.43041e-06
192
# CELL(abcABC):   16.99620    29.43815    27.67315    90.00000    90.00000    90.00000  Step:          10  Bead:      11 velocities{atomic_unit}  cell{atomic_unit}
       O  1.31392e-03  1.12746e-03  5.53791e-04
       H  2.74465e-04  4.94016e-04 -1.69347e-03
       H -7.50342e-04  2.04966e-03 -1.07874e-03
       O -1.76549e-03  2.30727e-04 -3.44090e-04
       H -3.48121e-03 -3.00356e-03 -6.44315e-03
       H -2.45458e-03  2.73780e-03  2.52119e-04
       O -2.50556e-04 -3.45579e-05  4.56062e-04
       H -8.63641e-04  3.96897e-03 -3.47245e-03
       H  1.86649e-04  4.17777e-03 -3.47345e-03
       O -7.10083e-04  9.31652e-04 -8.82173e-05
       H  2.52431e-03  6.10828e-03  4.54731e-03
       H  1.63457e-03 -2.76865e-03  1.57439e-03
       O  4.16890e-04 -7.76175e-04  2.31156e-04
       H -3.00285e-03 -1.21960e-03 -1.73468e-03
       H -2.76764e-03 -3.34081e-03  3.38728e-03
       O -6.36599e-04 -3.67281e-04 -1.70944e-03
       H -4.94892e-03  1.63804e-03  2.86981e-03
       H -6.17112e-04  2.45232e-03 -3.48279e-03
       O -3.62064e-04 -3.17223e-04 -2.12935e-04
       H  6.95360e-04  9.13830e-04 -4.62966e-03
       H -6.02521e-03  3.94416e-03  3.57358e-03
       O -2.60990e-05  1.04028e-03  9.45275e-04
       H  1.47791e-04  1.08445e-03 -6.51600e-04
       H -5.87036e-03  2.43939e-03 -1.18675e-03
       O  1.50330e-04  1.34335e-03 -4.49277e-04
       H -1.89951e-03 -2.05441e-03 -2.23809e-03
       H  1.78533e-03  3.77068e-03 -3.00573e-04
       O  3.56847e-04 -1.16090e-04 -1.01924e-03
       H -7.34670e-04  4.00447e-05  6.61158e-03
       H -2.38424e-03 -3.19349e-03 -4.65783e-03
       O -2.60072e-04 -8.19947e-04 -6.26127e-04
       H  1.03240e-03 -3.65560e-03 -2.41724e-03
       H  1.45389e-03  4.97864e-03  3.82327e-03
       O -1.94311e-04 -1.37560e-03 -1.29746e-03
       H -2.64058e-03  5.44601e-04 -1.87671e-03
       H  2.13792e-03 -6.21067e-03  4.28118e-04
       O  8.24797e-05  1.70830e-03  1.01831e-03
       H -1.63851e-03  2.81852e-03 -5.04761e-03
       H -3.00396e-03 -2.80076e-03  4.62572e-03
       O  1.09666e-03  3.53059e-04 -1.56251e-03
       H  8.67726e-04 -8.79451e-04 -2.38566e-03
       H -4.59617e-03 -8.30108e-04 -4.21122e-03
       O -3.94874e-04  2.44030e-04 -4.51591e-04
       H -3.97294e-03 -7.08817e-03 -5.98099e-03
       H  1.97804e-03  9.71058e-04  6.73794e-03
       O -2.19810e-03  2.41244e-04 -4.00869e-04
       H -2.13830e-03 -3.23580e-03 -1.12666e-03
       H  4.62418e-03  1.09335e-03  5.57776e-03
       O  6.98814e-04 -1.08084e-03 -1.17701e-03
       H -4.85072e-03  6.95735e-04  3.80700e-04
       H  1.04689e-03  2.83151e-03  2.69986e-03
       O -5.27093e-04  1.06578e-03  4.92476e-04
       H -6.91600e-03  3.92390e-04 -1.74209e-03
       H -1.33240e-03 -5.75407e-04  2.56546e-03
       O  4.39860e-04 -8.16009e-04 -6.71204e-04
       H  9.16949e-04 -2.10479e-03  3.92635e-03
       H  6.20905e-03  1.33950e-03 -9.36037e-04
       O  1.46924e-04 -7.41616e-04 -2.10947e-04
       H -1.53914e-03 -7.12873e-03 -1.52024e-03
       H -4.19086e-03  3.41381e-03 -6.02057e-03
       O  7.59209e-04 -5.23310e-04 -1.47522e-03
       H -3.66338e-03 -2.96798e-03  7.30949e-03
       H  2.52381e-03 -5.53204e-03 -2.07885e-03
       O -1.82171e-03 -1.09252e-03  1.89803e-03
       H -3.74275e-03 -1.81443e-03 -3.61848e-03
       H  4.52708e-03  3.66050e-03  6.98781e-03
       O  4.12088e-04  3.01161e-04 -1.15970e-03
       H -2.16654e-03 -1.65653e-03 -7.29681e-03
       H -1.09763e-04  2.09314e-03 -1.89857e-03
       O -7.79165e-05 -7.44643e-04 -7.89214e-04
       H -9.81168e-03 -2.14561e-03 -8.12505e-03
       H  4.72722e-04  1.56555e-03  3.33473e-03
       O  7.34874e-04 -5.91920e-04 -5.20019e-04
       H -2.74497e-03 -5.40812e-03  4.68582e-03
       H -6.08787e-04 -2.32192e-05  1.94097e-03
       O  9.65838e-04 -1.39693e-03  6.36015e-04
       H -2.02298e-03  1.79352e-03 -3.43513e-03
       H -4.01822e-04  6.16406e-03  4.77180e-03
       O -1.11272e-03 -1.43234e-03 -7.71803e-04
       H -3.04053e-03  2.42058e-03  2.42148e-03
       H -3.43954e-03 -3.33863e-03 -6.01812e-03
       O  8.71498e-05 -4.50858e-05  3.00762e-04
       H  2.28952e-04  4.83498e-03  1.40658e-03
       H  1.12020e-04 -2.03139e-03 -6.59617e-03
       O  9.77550e-04 -3.24186e-04  1.41968e-03
       H  7.83784e-04 -1.03623e-03 -2.62002e-03
       H  1.09714e-03  1.62179e-03 -5.48483e-04
       O -9.79733e-06  3.05684e-04  4.82059e-04
       H  5.83642e-04 -3.50749e-03 -3.38894e-03
       H  2.98690e-03  3.41731e-03 -3.24248e-03
       O -1.54150e-04 -3.79623e-04  3.34948e-04
       H  1.25542e-04 -1.93899e-03  3.67061e-03
       H -8.29304e-03 -2.80613e-03  1.32589e-03
       O -3.93194e-04 -8.61893e-04 -2.34721e-04
       H -5.95348e-03  1.08862e-02  5.24400e-03
       H -1.97675e-04 -5.79921e-04  6.16615e-03
       O  2.14656e-04  1.31548e-03 -6.28147e-04
       H  1.65788e-03 -1.21016e-03 -3.14408e-03
       H  2.15691e-03 -9.59848e-04  2.17576e-03
       O -2.20887e-04  1.17665e-03  1.41063e-03
       H -3.62362e-03 -6.92984e-03  6.34679e-03
       H -1.33548e-03 -2.60163e-03  1.03320e-03
       O  1.29945e-03 -3.18076e-04  1.23796e-03
       H  4.49522e-03 -4.66107e-03 -5.16759e-04
       H -2.89841e-03  4.81810e-03  2.14869e-03
       O -3.22740e-04 -2.28334e-06  1.30399e-03
       H  4.54524e-03 -1.43709e-03  4.81011e-05
       H -3.82991e-03  7.28891e-03  7.85340e-04
       O -8.64133e-04  8.24963e-04 -6.12381e-04
       H -3.76339e-03  5.78326e-03  1.52346e-03
       H  1.37902e-03 -2.31139e-03 -3.85177e-03
       O  1.11432e-03 -1.11655e-03 -9.34056e-04
       H -5.25988e-03  2.01827e-04  1.97918e-03
       H -3.50734e-03  1.43807e-04  4.36638e-03
       O  1.39077e-03 -2.11957e-03 -5.41696e-04
       H  6.98509e-04 -3.69183e-03 -7.70389e-03
       H -1.76693e-03  2.00553e-03  3.03145e-03
       O  1.26721e-03  5.83904e-04  1.15928e-03
       H  1.62266e-03 -3.11544e-03  2.14683e-03
       H  1.81996e-03 -2.67758e-03 -1.99754e-03
       O -9.98418e-05 -2.28294e-04 -8.08627e-04
       H  2.17362e-04 -1.54931e-03 -7.58352e-03
       H  7.22589e-03  3.82099e-03  4.74256e-03
       O  6.92228e-04  1.75492e-04  2.66266e-04
       H  3.10013e-04  5.21100e-03  8.40321e-03
       H  8.78816e-03  4.56655e-04 -2.16506e-03
       O -9.39556e-04 -1.38500e-04  5.25280e-06
       H -2.82089e-03  4.25558e-03 -1.44975e-04
       H -2.45608e-03 -7.46076e-04 -1.79972e-03
       O  1.26098e-03  9.10493e-05  7.52437e-05
       H  6.23530e-03 -8.17462e-04 -1.02643e-03
       H -6.81044e-03  1.45421e-03 -3.07569e-03
       O -6.52434e-04 -1.45575e-03 -2.92826e-04
       H -2.52150e-03  2.72195e-03  7.84063e-04
       H  9.00805e-03  2.22214e-03 -3.43599e-03
       O  1.20523e-05 -1.05783e-03 -6.92555e-04
       H  2.57583e-03  5.86643e-04  3.11380e-04
       H -2.55246e-03  1.33533e-03  1.14423e-03
       O  4.56946e-04 -1.01614e-03  2.69767e-04
       H -4.99457e-03 -2.46027e-03  5.70300e-04
       H -2.16129e-03  4.89548e-03 -6.67631e-03
       O  4.43422e-04 -1.13743e-03 -4.75500e-04
       H  3.74476e-03  9.97547e-04  6.41024e-03
       H  7.32239e-04  1.73214e-03  2.38851e-04
       O  5.06591e-04  4.51860e-04 -4.02570e-04
       H -1.49714e-03 -1.33054e-03 -1.72610e-03
       H  7.18258e-03 -2.24535e-03 -1.86072e-03
       O -9.57326e-04 -7.85462e-04  4.26043e-06
       H -2.42025e-03 -3.55451e-03  3.03498e-03
       H -3.62712e-04  9.15336e-03 -6.77695e-03
       O  3.67160e-04  5.15269e-04 -1.70583e-03
       H  3.63169e-04  1.44298e-03  2.21296e-03
       H -2.35774e-03  3.54420e-03 -4.96473e-03
       O  3.67075e-04  5.67063e-04  2.16017e-03
       H -7.94271e-03 -1.55226e-03  4.17651e-03
       H  5.19241e-03  1.20878e-03  5.61102e-03
       O  3.91209e-04  4.41746e-04 -1.91388e-04
       H  1.16124e-03 -2.62566e-05  2.68812e-04
       H  2.95915e-04  3.05397e-03  3.26402e-03
       O -1.03867e-03 -5.29148e-04 -3.92770e-04
       H  1.40051e-03  4.79220e-04  1.05032e-03
       H  2.75286e-03 -3.14647e-03 -1.00046e-03
       O -6.22844e-04 -8.54439e-04  5.96078e-04
       H -4.66774e-03  1.09164e-03 -5.67263e-03
       H  2.49476e-03  2.44533e-03 -3.26730e-03
       O -1.12584e-03 -8.96108e-04  1.41338e-03
       H -3.68412e-03  1.46427e-03 -1.46110e-03
       H  4.08774e-04  1.17993e-04  1.26420e-03
       O  2.85446e-04  6.52463e-05 -1.63848e-03
       H -5.52610e-03 -4.73263e-04 -6.15044e-03
       H -3.58680e-03  1.00344e-03 -3.07578e-03
       O -1.21431e-03 -3.41085e-04 -2.52033e-04
       H -2.33154e-03 -5.79911e-03  7.00000e-04
       H  4.87270e-03 -4.91690e-03  1.99411e-03
       O -9.00669e-04  4.66425e-04  7.47520e-04
       H -4.81977e-03 -2.53566e-04 -9.82940e-04
       H -5.55232e-03  9.67714e-05 -2.81518e-03
       O  8.23498e-04  6.42344e-04 -2.76155e-04
       H  3.75323e-03  5.36153e-03  9.71256e-04
       H  4.32518e-03 -8.42924e-03 -8.20933e-04
       O -1.59113e-04  6.26472e-04  2.23876e-03
       H  3.18217e-03 -3.67590e-03 -2.13277e-03
       H  2.09258e-03 -1.55436e-03 -4.44608e-03
       O -1.13042e-03 -8.99124e-04  9.22437e-05
       H  1.17809e-03  2.42345e-03 -7.96360e-04
       H  5.31292e-03 -2.46417e-03  1.71815e-04
       O -2.73395e-04 -2.05720e-04 -3.80251e-04
       H -2.79839e-03  9.50551e-04  7.61585e-04
       H -6.18516e-04  8.84876e-04 -4.42503e-03
       O  1.80245e-03  6.08998e-04  1.13959e-03
       H -5.84920e-03  9.24992e-04 -1.95512e-03
       H -4.84037e-03 -5.20462e-05 -1.22433e-03
192
# CELL(abcABC):   16.99620    29.43815    27.67315    90.00000    90.00000    90.00000  Step:          20  Bead:      11 velocities{atomic_unit}  cell{atomic_unit}
       O -1.53045e-04 -2.40400e-04  4.38817e-04
       H -1.01441e-03 -3.67015e-03 -1.76747e-03
       H  3.84749e-03  1.95154e-03 -6.73280e-04
       O -5.43712e-04  9.79165e-06 -9.72054e-04
       H  1.51230e-03 -3.12599e-03  5.74840e-03
       H -1.84010e-03 -4.85962e-03  3.14670e-05
       O -3.83376e-05  3.92183e-05  1.08017e-03
       H -1.12813e-04  4.07416e-03  2.03618e-03
       H  2.07666e-03 -2.85103e-03 -3.48532e-03
       O -7.01261e-04  2.48047e-03  1.32421e-03
       H -5.31602e-04  1.49728e-03 -9.34195e-04
       H  4.18551e-04  1.27631e-03 -4.23050e-03
       O -1.90914e-04 -1.20274e-03 -1.45399e-04
       H  7.67934e-03  3.77314e-03 -1.09138e-03
       H  1.80259e-03 -6.58487e-03  1.47208e-03
       O  1.66866e-03 -9.23338e-05 -4.27541e-04
       H -6.90187e-04  5.51961e-03  7.15174e-04
       H  3.37618e-05 -3.40456e-03 -8.67847e-03
       O -2.28910e-05 -1.01102e-05  3.73733e-04
       H  1.29782e-03  4.92825e-03  5.43855e-03
       H  6.19197e-03  4.92847e-03 -2.76814e-03
       O -6.46752e-04  6.89947e-04 -2.38309e-03
       H -1.48798e-03 -2.93519e-03  7.42485e-03
       H  2.04170e-03  3.92732e-03  2.81535e-03
       O  4.31305e-04  8.71279e-04 -6.86739e-05
       H  8.76062e-03  6.12762e-03 -1.38371e-04
       H -6.34449e-03 -5.60903e-03 -1.17741e-03
       O -5.79310e-04  7.86045e-04 -1.23456e-03
       H -1.27351e-03  4.87060e-03 -4.61978e-03
       H  2.46247e-03  2.81495e-05  1.67557e-03
       O -1.19145e-03 -8.91999e-04  1.09457e-03
       H -3.30116e-03 -1.28209e-03  6.02699e-03
       H  4.35650e-03  1.81067e-03 -1.51179e-03
       O  5.92954e-04 -3.39834e-04  1.50863e-03
       H  2.50169e-03  3.28693e-03 -5.70549e-03
       H  2.45292e-04  4.12513e-03  3.05945e-04
       O -1.40088e-04 -2.90521e-04 -2.43611e-03
       H -4.90641e-03 -2.99514e-03  1.25476e-03
       H  3.66476e-03 -1.15213e-03  8.29035e-03
       O -6.10693e-04  4.19503e-04 -1.42617e-03
       H -1.39694e-03 -2.20853e-03  1.11547e-03
       H  2.58710e-03 -1.63280e-03  1.24572e-03
       O  5.05220e-04 -3.18139e-04  6.99455e-04
       H  1.10529e-03  2.73497e-03 -6.71769e-04
       H -5.39657e-03 -4.09026e-03 -4.95166e-03
       O -3.39003e-04 -1.24291e-03  6.09676e-04
       H  9.99932e-04 -1.62988e-03 -3.82602e-03
       H  3.40696e-03  7.33767e-03 -4.64666e-03
       O -4.05401e-04 -1.35089e-03 -2.95897e-04
       H  2.47883e-03  1.05056e-03 -3.57803e-04
       H  1.01116e-03 -3.54799e-03  1.05058e-03
       O  4.65510e-04  7.89492e-04 -4.72978e-04
       H -9.02260e-03 -1.26516e-03 -2.68214e-03
       H  4.55110e-03 -2.22972e-03  4.48029e-03
       O  7.30656e-04 -3.01901e-04 -2.88427e-04
       H  4.23151e-03 -2.67395e-03 -2.76617e-05
       H -3.06576e-03 -5.52292e-03 -2.51249e-03
       O  1.45932e-04 -1.44787e-04  3.54935e-04
       H  4.60322e-03 -1.44782e-03  2.27001e-03
       H  4.03551e-03 -3.72873e-04  3.65463e-03
       O  3.61292e-05  1.60848e-03 -1.21518e-03
       H  1.74357e-03  3.83207e-03  1.94478e-03
       H -2.77890e-03 -3.85196e-04 -6.92004e-04
       O -2.13406e-03 -6.72000e-05  7.69753e-04
       H  1.51959e-03  4.07858e-03  4.20918e-03
       H  3.25944e-03  7.74212e-03  3.23652e-03
       O -1.23434e-03  4.59252e-04  1.92633e-03
       H  1.80718e-03  5.26074e-03  4.89741e-03
       H -3.98893e-04  3.65198e-03 -1.65521e-03
       O -4.88997e-04 -4.06184e-04  3.39554e-04
       H  4.72556e-03  6.09868e-04 -5.47248e-03
       H  1.87928e-03  1.23485e-03  2.29934e-03
       O -7.44691e-05 -2.70715e-04 -1.33117e-03
       H -1.75107e-03 -1.77664e-03 -4.83255e-03
       H -4.25461e-03  3.97121e-03 -3.32384e-05
       O -3.00481e-03  8.09446e-04 -8.99721e-04
       H -3.50855e-03  4.04033e-03  4.34201e-03
       H -2.14289e-03  1.12186e-03 -1.08358e-03
       O  8.79872e-05  2.76796e-04 -4.14535e-04
       H  1.67511e-04  1.00368e-04  7.00781e-03
       H -5.48361e-03  4.77428e-04 -1.96606e-03
       O -1.44022e-04  1.01308e-03  5.05531e-04
       H  1.17694e-02  1.94110e-03 -1.11506e-03
       H -2.74829e-03 -2.44392e-04  2.29239e-03
       O -2.72562e-04  7.18207e-04  8.79539e-05
       H -2.33974e-04  3.69434e-03 -3.76637e-03
       H  2.52917e-03  2.52913e-04 -1.41785e-03
       O  3.62029e-04  3.64138e-04 -7.28496e-04
       H  3.04622e-03  5.54778e-03  5.56602e-03
       H -6.96205e-04 -4.35419e-03 -4.94371e-03
       O -1.18448e-03 -4.55224e-04 -7.82997e-04
       H  2.68759e-03  2.14486e-03 -4.34609e-04
       H  1.22303e-03  3.28992e-03  1.54745e-03
       O -5.87043e-04  3.35128e-03  9.71020e-04
       H  2.01750e-03  5.91693e-03 -6.01408e-03
       H  3.12083e-03  5.19520e-03  4.27227e-03
       O  3.19630e-04 -2.40872e-04  1.63964e-04
       H -4.75914e-03 -2.79245e-03  1.72785e-04
       H  2.94449e-03 -4.15808e-03 -1.31566e-04
       O  6.28357e-04 -3.27554e-04  1.21621e-03
       H -4.43723e-03 -3.86979e-03  2.97462e-03
       H  7.80208e-04 -1.41158e-03 -2.96586e-03
       O  1.26950e-03  4.93169e-04  9.77828e-05
       H -3.85556e-03 -9.48383e-04  3.80004e-03
       H -1.44422e-03  1.73596e-03  1.71561e-03
       O -1.80958e-03 -2.03448e-03  2.58004e-05
       H -3.54983e-03  2.94832e-03 -8.00815e-03
       H  5.78553e-03 -4.46445e-03 -1.53838e-03
       O  2.17924e-04  5.31444e-04  2.54666e-03
       H -1.68516e-03 -1.18397e-03 -3.72037e-03
       H -3.07872e-03 -7.63547e-03 -1.59729e-03
       O -4.68436e-04 -2.18310e-04 -7.55805e-04
       H -9.54838e-04 -3.82640e-03  1.32089e-03
       H  9.65179e-04  3.06080e-03 -2.77217e-03
       O -1.09568e-03 -1.31657e-03  1.54621e-03
       H -1.63685e-03 -2.47121e-03  4.10360e-03
       H  4.40912e-03 -1.24349e-03  3.80804e-03
       O  4.35439e-04  1.47227e-04  2.38652e-05
       H -5.17782e-03  5.99358e-04 -1.68675e-03
       H -4.69414e-03  3.65971e-03 -1.41905e-04
       O -8.39476e-04 -1.95887e-04  4.27934e-04
       H -1.46360e-03 -2.62926e-03 -5.39210e-03
       H -1.25188e-03 -4.18826e-03 -2.57180e-04
       O  3.46619e-04  5.99949e-04  6.92607e-04
       H -3.23827e-03  2.74112e-03  9.30467e-03
       H  3.10650e-03 -4.39125e-03 -7.89290e-03
       O  1.66388e-04  5.62157e-04  7.84093e-04
       H -1.55450e-03 -1.77262e-03 -2.30327e-03
       H -2.86172e-03 -2.84146e-03  5.15933e-03
       O  7.11475e-04  2.33188e-03 -5.07672e-04
       H -6.04923e-04 -3.28272e-03 -3.67295e-03
       H  1.56216e-03  5.59642e-03  5.55105e-03
       O  3.97689e-04  8.58691e-04 -7.47418e-04
       H -3.81655e-03  1.45801e-03 -4.15601e-03
       H -4.49519e-03  2.80460e-04 -1.31784e-03
       O  4.94393e-04  6.82558e-04  5.88146e-04
       H -1.27565e-03 -5.51294e-03  7.69833e-04
       H  4.82125e-04 -1.96394e-03  5.95393e-03
       O -3.79056e-04  1.19291e-03 -1.05639e-04
       H -5.01631e-03 -1.67106e-03  4.43288e-03
       H -5.20839e-03 -7.33336e-03  7.93622e-04
       O -8.46854e-04 -1.14145e-03  1.85727e-05
       H  9.80569e-04 -3.50516e-03  6.61997e-03
       H -4.53271e-03 -8.93910e-04 -1.70110e-03
       O  2.47444e-04  9.70384e-04  1.31393e-03
       H  3.31777e-03  1.35810e-03 -8.48772e-03
       H -4.33526e-03  1.15347e-03 -1.50769e-03
       O  7.66741e-04 -4.67821e-05  8.15963e-04
       H  1.70110e-03 -2.21392e-03  4.62885e-04
       H -4.38293e-03  3.95054e-04  6.30553e-04
       O -2.06061e-03  1.16203e-03 -3.03703e-04
       H  1.04658e-03 -4.28104e-03 -4.78001e-03
       H  4.18267e-03 -1.98660e-03  2.79900e-03
       O -6.61842e-04 -7.76577e-04 -6.35701e-04
       H  9.62258e-04  1.72193e-03 -1.87688e-03
       H -3.95789e-03  4.32017e-03 -3.16994e-04
       O -7.77241e-04 -1.58312e-03  1.63519e-03
       H -1.39088e-03 -3.13427e-03  8.29912e-03
       H  1.69257e-03 -4.06450e-03 -7.60023e-04
       O  1.07765e-03 -1.25999e-03  6.57496e-04
       H -2.60287e-03  3.67089e-03 -6.95629e-03
       H -4.50181e-03 -1.18172e-03  5.60419e-03
       O  1.23956e-04  1.16611e-03  2.34830e-03
       H  3.21466e-03 -7.43793e-04  4.42612e-04
       H  7.93703e-04 -2.00376e-03  5.22200e-03
       O -9.20142e-04  3.67914e-04 -6.00647e-04
       H -1.21766e-03  2.33487e-03  8.14552e-03
       H  1.76894e-03  2.06723e-03  7.42877e-04
       O -6.50739e-05 -3.88427e-04 -2.16498e-04
       H -3.48305e-03 -5.16526e-03  5.97447e-03
       H  8.80028e-05  1.35560e-03  3.04459e-03
       O -6.01723e-04  1.19138e-03 -3.42223e-04
       H -1.29893e-03  4.67109e-03 -1.18402e-03
       H -1.37722e-03 -1.69798e-04 -1.67514e-04
       O -9.72877e-04  3.12588e-04 -1.22869e-03
       H -4.64779e-04  4.70642e-03 -1.42949e-03
       H -1.00562e-03 -7.58784e-03  5.21125e-03
       O -5.11582e-04 -2.97138e-04  6.69667e-04
       H  8.60892e-04  2.17643e-03  8.89321e-04
       H  2.35771e-03  1.73750e-04  9.64633e-03
       O -1.04926e-03 -8.06821e-04  1.07904e-03
       H -6.45201e-03 -2.96035e-03  4.47956e-03
       H  1.05742e-03  3.03849e-03  1.02830e-03
       O -6.25345e-04 -1.53802e-04  1.66968e-03
       H -5.12112e-03  7.52182e-04  1.97779e-03
       H -7.03151e-03  7.82172e-04  5.43604e-03
       O  1.95121e-03 -1.07651e-03  1.74009e-04
       H  6.07861e-04  6.24910e-04 -2.13455e-03
       H -1.19480e-03  1.39100e-03 -6.12024e-04
       O  2.48698e-03  5.89715e-04 -1.01443e-04
       H -1.22477e-03 -4.98693e-03 -1.01175e-04
       H -1.47067e-03  1.04651e-03  2.37799e-03
192
# CELL(abcABC):   16.99620    29.43815    27.67315    90.00000    90.00000    90.00000  Step:          30  Bead:      11 velocities{atomic_unit}  cell{atomic_unit}
       O -2.67788e-04  9.64599e-04  1.36004e-03
       H  3.21141e-03  2.80186e-03 -2.93185e-03
       H  4.37208e-03 -1.80321e-03  1.61910e-03
       O -1.54681e-03  1.17728e-03  2.75864e-04
       H  1.39738e-03  1.82799e-03 -6.44875e-03
       H -7.16222e-04 -2.71294e-03 -1.19393e-03
       O -4.42677e-04  1.46849e-03  9.97980e-05
       H  1.54848e-03 -2.80340e-03  3.91003e-03
       H  1.15754e-03 -2.26667e-04  2.96651e-03
       O  9.51218e-04 -1.42145e-03 -2.12704e-04
       H -3.21534e-03  7.25274e-04  2.11542e-03
       H  2.02833e-03  9.24726e-04  1.09624e-04
       O -3.64177e-04 -7.90082e-04  2.67537e-04
       H  1.67733e-03  2.81097e-03 -4.72617e-03
       H  5.13227e-04 -1.14456e-03  7.35120e-03
       O  4.29828e-04 -2.00380e-03 -4.08498e-04
       H  5.43954e-04 -2.98228e-03 -1.43796e-03
       H -9.93394e-04 -1.15421e-04  2.18301e-03
       O  4.41046e-04 -6.28628e-04 -1.32343e-04
       H  1.11163e-02  1.44790e-03  6.36070e-03
       H  3.86598e-03  2.50812e-03 -3.98169e-03
       O  4.02006e-04 -8.41015e-04 -9.48653e-05
       H  1.87037e-03  4.07433e-03  1.21003e-03
       H -2.94202e-03 -6.00391e-04  6.89251e-04
       O -1.03022e-03  6.98889e-04  1.58123e-04
       H -2.39513e-03 -2.15477e-03  4.19712e-03
       H  5.75709e-03  2.44591e-03 -3.66925e-03
       O  1.57086e-03  1.42626e-03  1.46948e-03
       H  1.26746e-03  5.04810e-03 -1.88480e-04
       H -2.90144e-03  4.02871e-03 -2.51472e-03
       O  8.85031e-04 -1.49583e-04  1.62518e-04
       H  3.85223e-03  4.41071e-03 -1.86420e-03
       H -2.11835e-03 -6.22212e-04  4.74716e-03
       O  4.83469e-04 -1.17927e-04 -9.80014e-05
       H  5.18692e-03  2.28992e-04 -1.56639e-03