192
# CELL(abcABC):   16.99620    29.43815    27.67315    90.00000    90.00000    90.00000  Step:           0  Bead:      16 velocities{atomic_unit}  cell{atomic_unit}
       O -4.66862e-04  7.22214e-04  7.13335e-04
       H -6.42129e-03 -2.29937e-03  3.09432e-03
       H -4.30349e-03 -6.88698e-03 -1.44580e-03
       O  2.29755e-04  1.33260e-03 -1.05016e-03
       H -3.65955e-03 -3.01647e-03 -2.89204e-04
       H -5.16813e-03 -8.48513e-04  6.91012e-03
       O  9.13688e-04  7.05958e-04 -1.16929e-03
       H -1.18028e-03  3.21284e-03 -1.14675e-03
       H -2.50139e-03 -5.77341e-04 -6.22047e-03
       O  6.78166e-04  2.36311e-03 -6.32715e-04
       H -1.63325e-03  3.91480e-03 -8.62568e-04
       H -5.83846e-03  7.01309e-04 -2.09573e-03
       O  5.22164e-04  3.99903e-04 -1.03649e-04
       H -7.09642e-04  5.59179e-03  3.69365e-05
       H  1.63737e-03 -5.34240e-03 -3.49729e-03
       O  4.20920e-04  8.87851e-04  6.58129e-05
       H -2.17095e-03  2.86186e-03 -8.40215e-04
       H  5.95897e-04  2.96654e-03 -7.77856e-03
       O  1.91208e-03 -1.59446e-03  3.11353e-05
       H -5.95106e-03  3.11224e-03  1.69824e-03
       H -4.40394e-03 -1.71621e-03 -4.56075e-03
       O  5.53010e-04  5.73393e-04 -1.44341e-04
       H  1.17781e-02  1.33056e-03  1.11478e-04
       H -5.26997e-04 -7.28625e-04  2.28713e-04
       O  1.28737e-03  5.57874e-04 -5.80014e-04
       H  2.27249e-03 -1.26807e-03 -2.16325e-03
       H -4.89791e-03 -4.23881e-03  9.85182e-04
       O -4.95327e-04 -7.76201e-04  9.97969e-04
       H -2.47956e-04 -8.08392e-03  2.84585e-03
       H -6.61747e-04 -5.10932e-04 -1.74884e-03
       O  6.70606e-05  4.61941e-04  1.09768e-03
       H -5.05360e-03 -2.01025e-03  3.73470e-03
       H -8.04695e-03  5.10453e-03 -2.69315e-03
       O  4.35717e-04  1.94757e-03  7.72965e-04
       H  4.37429e-03  1.06774e-03  2.58799e-03
       H  5.42924e-04  7.76432e-04 -2.57188e-03
       O -1.45803e-03  8.89497e-04  8.54683e-04
       H  2.48695e-03 -5.24655e-05 -2.95094e-03
       H -4.01711e-03 -5.41704e-03 -8.62859e-03
       O -9.75713e-04 -1.73944e-04 -7.09634e-04
       H  3.29193e-03 -3.70406e-03 -1.76165e-03
       H -1.06994e-02 -2.22162e-03  1.41930e-03
       O -2.67601e-04  1.35026e-04  1.38169e-03
       H  7.86421e-04  8.41567e-04 -2.66244e-03
       H  5.08731e-03 -6.57333e-04  4.63168e-03
       O -3.35258e-04 -2.68872e-04  6.91931e-04
       H -2.44288e-03  3.60077e-03  1.72135e-03
       H -4.77056e-03  2.92218e-03  3.92226e-03
       O  1.18692e-03 -7.22178e-04 -1.83305e-04
       H -3.90082e-03 -5.49202e-03 -3.06943e-03
       H -7.14694e-04  4.91249e-03 -7.25631e-03
       O  7.61714e-05  1.55347e-04 -1.18128e-03
       H -1.19587e-02  5.30245e-03 -8.40505e-03
       H -4.94067e-03 -2.82932e-03  4.54867e-04
       O  6.76945e-04  1.14216e-05  6.66771e-04
       H  1.18684e-03  3.19137e-03  2.31212e-04
       H  8.31406e-05 -5.32156e-04 -1.30118e-03
       O -7.79600e-05 -5.20197e-04  1.37950e-03
       H  2.17026e-03  1.87059e-04 -1.39894e-03
       H  3.31971e-05  1.39833e-03 -1.94412e-03
       O  5.09268e-04  5.47677e-04 -1.28740e-03
       H -8.68877e-03  3.71671e-03  6.18473e-03
       H -2.79060e-03 -1.39566e-03 -1.14004e-03
       O -1.56777e-03  7.97759e-04  3.90886e-04
       H -2.45128e-03 -2.93040e-03 -2.73393e-03
       H  4.09023e-03  1.58875e-03  1.15035e-03
       O -1.02488e-03  3.15136e-04 -2.09015e-03
       H  3.52807e-03 -2.38043e-03  2.41840e-03
       H  2.94010e-03  1.88570e-03  5.39431e-03
       O -3.30904e-04 -5.02467e-04 -6.83419e-04
       H -1.21770e-03 -4.06117e-03 -1.55634e-03
       H -2.38008e-03 -1.87155e-03  3.63777e-03
       O  1.39295e-03  7.81887e-04 -1.32697e-03
       H  3.70989e-03 -4.01332e-03  1.36953e-04
       H  3.86600e-03 -3.52655e-03  7.96831e-05
       O  4.90421e-05 -1.63878e-03 -2.05720e-04
       H  1.14587e-03  6.72700e-03  1.33336e-03
       H -2.64824e-03 -2.11543e-03  7.38928e-04
       O -5.31461e-04  1.39974e-04 -5.99483e-04
       H -1.68092e-03  2.43659e-03 -3.81920e-04
       H -4.38218e-04  9.30252e-04  3.25050e-03
       O  4.47075e-04 -7.94477e-04 -2.36095e-04
       H  7.05744e-04 -1.11221e-03 -8.10662e-03
       H  5.68474e-03  4.81912e-04  2.13776e-03
       O -1.45610e-03 -2.28923e-04 -2.01804e-03
       H  1.98506e-03 -9.49335e-04 -4.86795e-03
       H -2.36515e-03 -3.73264e-03  1.57532e-03
       O  3.69245e-04 -6.93254e-04 -1.61834e-03
       H  1.25533e-04 -1.67157e-03 -1.66171e-03
       H  1.61906e-03  4.54484e-03  4.49464e-03
       O -1.39286e-04 -9.21924e-04  2.71086e-04
       H  4.65046e-04  1.39223e-03 -6.69301e-04
       H -2.09973e-03  1.50449e-03 -1.61335e-03
       O -8.45252e-05  7.12885e-05  1.38533e-03
       H  3.97776e-03 -2.94037e-04  2.28756e-03
       H -3.34180e-03 -8.38048e-03  5.87711e-03
       O  1.74138e-05  3.85776e-04  1.44801e-04
       H -9.86913e-04  1.48790e-03  2.89899e-03
       H -3.36021e-03 -6.78813e-04  1.30986e-05
       O  2.19623e-03 -1.56080e-03  3.16186e-04
       H  3.52642e-04  3.99972e-03 -3.67891e-03
       H -2.24458e-03 -4.36072e-03 -1.56993e-03
       O -5.05647e-04 -1.30654e-03  2.86460e-04
       H -5.95146e-04  4.05590e-03 -1.43891e-03
       H -3.40182e-03 -4.90843e-04  9.11458e-04
       O -4.60062e-04  1.33358e-03  2.74627e-04
       H -2.59133e-03  2.19637e-03 -1.45205e-03
       H  2.35531e-03 -5.74165e-03 -3.45307e-03
       O -5.31548e-04  8.75933e-04  1.14175e-03
       H  2.49958e-03 -4.94047e-03 -5.44619e-03
       H  1.09513e-03 -7.74712e-03 -6.17030e-03
       O -1.88827e-04  7.74824e-04  8.75586e-04
       H -1.00002e-03  4.18123e-05 -9.30506e-03
       H  3.80064e-03 -5.25895e-03  2.33910e-04
       O -1.14497e-04  2.41846e-04  2.47741e-05
       H  2.24370e-03  2.59381e-03 -2.36953e-03
       H -5.89617e-03 -5.31056e-03  3.33070e-03
       O -5.95571e-04 -1.55666e-04  6.09966e-04
       H -4.71502e-03  1.63304e-03  4.16925e-03
       H  4.52245e-03  5.84989e-03 -1.35057e-03
       O -1.29226e-03 -8.07381e-04 -1.47021e-03
       H  4.77180e-03  4.44959e-03 -4.21059e-03
       H -6.34886e-03 -1.23257e-03  7.98588e-03
       O  2.52340e-04 -1.83895e-04 -5.16838e-05
       H  3.48965e-03 -3.82087e-03  1.82102e-03
       H  4.19282e-03 -1.35480e-03 -4.48621e-03
       O  5.77187e-05 -5.99192e-04  1.15682e-03
       H  4.91000e-03 -2.44981e-03  5.02497e-03
       H  4.25908e-04 -1.32602e-03  3.82585e-03
       O  2.33789e-04 -3.39173e-04 -2.78745e-04
       H  3.09240e-03 -2.28930e-03 -6.73674e-04
       H -3.24199e-03 -1.19506e-03 -1.54848e-03
       O  1.08320e-03  4.53019e-04 -3.74796e-04
       H -1.03273e-04 -9.87268e-04  4.11459e-03
       H -5.09219e-03 -1.71508e-03 -3.98699e-04
       O  1.12181e-03  6.53632e-04  6.77705e-04
       H  2.77847e-03  4.08792e-03  2.61571e-04
       H  1.06281e-03 -3.55805e-03  2.56535e-04
       O  1.02708e-03 -1.25495e-03  1.36210e-03
       H -3.10872e-03  3.76872e-03 -3.20686e-03
       H  4.59911e-03 -4.44256e-03 -3.83070e-03
       O  8.89908e-04  2.12254e-04 -8.71271e-04
       H  9.34852e-04 -6.20104e-03 -1.29847e-04
       H  1.21085e-03  3.75563e-03 -3.45066e-03
       O -4.39505e-04 -7.49106e-04 -1.48244e-04
       H -4.96878e-03  2.04322e-03 -3.08819e-03
       H -1.31359e-03 -1.60390e-03 -2.44068e-03
       O -1.15350e-03  1.32650e-03  1.90369e-03
       H  7.85953e-03 -2.91898e-03 -3.91563e-03
       H -9.84146e-04 -8.76756e-03 -7.90355e-04
       O -2.37465e-04  5.85679e-04 -3.87182e-05
       H  2.40893e-03  5.51621e-03 -3.25421e-03
       H -8.62669e-04 -5.36923e-04 -2.10585e-03
       O -1.18757e-03 -6.76919e-04  5.88917e-04
       H -1.95499e-03 -3.15334e-03 -1.72997e-03
       H  4.24823e-03 -6.01050e-04  5.21679e-03
       O -7.65353e-04  6.25618e-04  4.86687e-04
       H  1.59321e-04  1.25397e-03  2.27838e-04
       H -1.38531e-03  4.91348e-03 -6.55030e-03
       O -3.38145e-04 -5.34612e-04 -1.00899e-03
       H  3.44249e-04  3.55972e-03  1.75954e-03
       H  5.41683e-03  1.89614e-03  7.95718e-04
       O -3.88708e-04 -1.13169e-03 -9.19842e-04
       H -2.02282e-03  9.78174e-04 -6.65708e-04
       H -1.25830e-03 -1.52253e-03  7.38923e-03
       O -3.67465e-05  5.16108e-05 -3.07909e-04
       H -9.49509e-04 -3.33127e-03 -6.59435e-03
       H -3.53124e-03 -6.16701e-03 -9.77186e-04
       O -3.31411e-04  7.19517e-04  1.05549e-03
       H -2.69779e-03  6.99045e-03  1.53404e-03
       H  6.53713e-04  4.50952e-03  3.68712e-03
       O -1.17711e-04 -9.45167e-05 -2.49215e-04
       H  1.66208e-03 -5.16255e-03 -2.04035e-03
       H -1.93072e-03 -6.65430e-04 -3.31923e-03
       O -6.52026e-04 -4.62528e-04  1.45698e-03
       H -5.80605e-03 -9.31662e-04  6.97692e-03
       H -3.85105e-03 -2.92775e-04 -2.11264e-03
       O  9.23706e-04 -2.04280e-04  5.94007e-05
       H -3.80097e-03  1.23177e-03  3.70331e-03
       H  2.43248e-03 -2.08689e-03 -2.18776e-03
       O  6.88119e-04  7.33104e-04 -1.09391e-03
       H  1.95051e-03 -2.61456e-03  1.83195e-03
       H  1.32689e-03  7.50265e-05  4.70148e-03
       O -1.52619e-03 -1.31955e-03 -1.26113e-03
       H  4.49896e-04  2.98838e-04  1.95140e-03
       H  9.60560e-03  2.60786e-03  7.26260e-06
       O -2.53280e-04  5.69688e-04 -5.78679e-04
       H -4.91378e-04 -9.62010e-05  7.45864e-03
       H  1.25471e-03 -7.02804e-03 -1.13946e-03
       O  1.88596e-03 -2.16805e-03 -3.93772e-04
       H -4.44576e-03  2.58475e-03  5.29817e-03
       H -1.04257e-03  2.55210e-03 -4.56760e-03
192
# CELL(abcABC):   16.99620    29.43815    27.67315    90.00000    90.00000    90.00000  Step:          10  Bead:      16 velocities{atomic_unit}  cell{atomic_unit}
       O  5.75166e-05 -8.02862e-04  9.63534e-04
       H  3.24877e-03  2.82953e-03  8.02994e-04
       H  3.34954e-03  4.76458e-03 -4.84167e-03
       O -7.96711e-04 -5.44160e-04 -7.48873e-04
       H  6.16335e-03 -3.14349e-03 -4.54219e-03
       H  3.88446e-03  5.42087e-03 -2.60943e-03
       O -1.49197e-03  2.35858e-03  9.49558e-04
       H -1.74852e-03 -2.36135e-03  2.88369e-03
       H  2.63842e-03  6.56191e-04  8.28406e-04
       O  1.27256e-04 -5.65065e-04 -5.38243e-04
       H -2.75732e-03 -4.25581e-04 -4.15229e-03
       H  3.27989e-03  3.61949e-03  3.98823e-03
       O -1.81721e-03  7.42182e-04  3.82979e-05
       H  6.90604e-03 -2.44179e-03  3.54942e-03
       H  9.12945e-04 -1.70067e-04 -3.44401e-03
       O  2.55411e-04 -1.06052e-03  4.85771e-04
       H -9.38356e-04  5.68658e-03 -9.15409e-03
       H  2.97585e-03  1.05933e-03 -4.08703e-03
       O  1.82070e-04 -3.65248e-05  1.35643e-04
       H -4.46626e-03  9.18199e-04  9.22315e-03
       H  5.66408e-03  4.01180e-03  2.94082e-03
       O -5.19513e-04  4.44783e-04 -3.98328e-04
       H -6.61148e-04  2.11923e-04 -6.17365e-04
       H -3.97300e-03  7.60813e-03  2.26694e-03
       O -5.43065e-04  1.43340e-03 -6.08119e-05
       H -7.42671e-03  3.98151e-04  3.14440e-03
       H -5.11602e-03  2.31857e-03  2.17874e-03
       O -1.31219e-04  3.61340e-04 -1.67692e-03
       H -6.39825e-03  1.82857e-03 -3.86479e-03
       H  2.56318e-05 -8.42922e-04  4.58422e-04
       O -2.05698e-04 -2.01783e-03  6.55685e-05
       H  8.10676e-03  2.59349e-03  5.35897e-04
       H -2.42763e-03 -7.51711e-03 -1.49052e-03
       O  3.06857e-04 -3.22478e-04 -2.06762e-04
       H  2.94169e-03 -3.62602e-03 -3.47082e-03
       H  3.16773e-03  3.56994e-03  1.33217e-03
       O  2.07870e-03 -9.94546e-04 -7.16641e-04
       H -8.17724e-04 -5.53468e-04  5.60859e-04
       H  6.16806e-04  3.60784e-03 -2.24830e-03
       O  1.21322e-03  7.38519e-05 -1.03619e-04
       H -8.26059e-04 -5.29797e-04 -4.28516e-03
       H -3.39756e-03 -5.01792e-03 -3.47457e-04
       O -3.22575e-05  1.76995e-04  7.33059e-05
       H -1.40547e-04  1.10834e-03  4.22931e-03
       H  8.07884e-03 -3.99653e-04  2.48465e-03
       O  4.03624e-04 -9.73347e-04  1.17467e-03
       H  4.19447e-03  1.50856e-03 -1.07252e-03
       H -3.84336e-03 -1.56873e-03  2.49284e-03
       O  1.47912e-03 -5.51088e-04 -6.27237e-04
       H  6.55688e-04  3.23553e-03  2.75199e-03
       H -5.82021e-04 -1.82347e-03  5.37717e-03
       O  1.22581e-04 -6.56439e-04  1.35065e-03
       H -3.02377e-04  1.37796e-04  1.82524e-03
       H -5.78908e-04 -2.28667e-03  3.89718e-03
       O -3.11029e-04  7.25104e-04 -8.59685e-04
       H -1.87082e-03  2.63935e-03  5.18173e-04
       H  2.07820e-03  4.12293e-03 -3.83054e-03
       O -1.01333e-03 -1.44421e-04 -3.43775e-04
       H  1.00908e-03 -5.75173e-04 -8.07116e-04
       H  5.91109e-03  2.84764e-03 -4.99382e-03
       O -7.06093e-05  1.08751e-03 -2.86552e-04
       H  2.78705e-03 -1.32220e-03 -5.91817e-03
       H -6.45710e-03  5.61542e-03 -8.42247e-04
       O -1.05534e-03 -2.03353e-04 -1.42135e-03
       H -5.37906e-03  1.09867e-03  2.47051e-03
       H  6.13394e-03  5.34458e-03  9.20549e-03
       O -6.43854e-04  2.77204e-04  1.62120e-04
       H -2.31156e-03 -6.97479e-05  1.60273e-03
       H -3.77139e-03  2.65122e-03 -9.80439e-03
       O  1.79715e-05 -1.48291e-04  1.89509e-03
       H -4.05984e-03 -4.09480e-03  4.22493e-03
       H -2.63794e-03  2.39662e-03  1.57949e-03
       O  2.62885e-04 -1.20237e-03 -4.61752e-04
       H -3.73776e-03 -6.43603e-05 -1.59815e-03
       H  2.19183e-03 -1.66762e-03  3.98148e-03
       O  1.12157e-03  6.54234e-04 -9.23489e-04
       H  1.07723e-03 -4.34074e-03  7.03072e-04
       H  1.07655e-03  9.22761e-03  1.75567e-03
       O  1.56890e-03 -1.84650e-04  2.83355e-04
       H -7.39055e-03 -4.99197e-03 -2.79628e-03
       H -1.34837e-03  4.17515e-03 -3.62205e-04
       O  2.10958e-04  1.77679e-03 -3.09467e-04
       H  3.60993e-03 -8.27210e-03 -9.97463e-04
       H  1.24214e-04 -3.85719e-04 -3.94295e-04
       O  9.19649e-04 -5.11110e-04 -2.07642e-04
       H  5.83778e-03  2.36306e-03 -6.93302e-03
       H -4.98873e-03 -4.14180e-04 -1.06728e-03
       O -7.74645e-04 -4.02927e-04  5.61629e-04
       H  5.24141e-03  4.31435e-03 -1.07731e-02
       H  3.55506e-03 -4.63485e-03  7.11340e-04
       O -7.89953e-04 -3.56219e-04  7.99765e-04
       H  4.51157e-03  5.85599e-04 -1.56428e-03
       H  2.42024e-03 -2.82558e-03  5.93489e-03
       O -1.31590e-03  1.47958e-04 -8.98001e-06
       H  2.06952e-03  2.34390e-03 -3.61452e-03
       H  2.31872e-03 -4.89093e-03  3.79504e-04
       O  6.77868e-04 -3.33998e-04  5.25646e-04
       H  3.08743e-03  2.15423e-03  4.56636e-04
       H -3.01585e-03  1.55336e-03  3.66866e-03
       O -5.50383e-05 -6.03189e-04 -9.21396e-04
       H  1.42319e-03 -4.66036e-03  8.12998e-05
       H  5.55809e-03 -1.17860e-04 -6.33736e-03
       O  1.32060e-03  1.12001e-03 -7.90614e-04
       H  2.52409e-03 -8.98851e-03  2.17456e-03
       H -6.71129e-04  1.24463e-03  4.63373e-03
       O -1.66059e-03  1.30928e-03 -5.02128e-04
       H -9.37420e-04 -8.75977e-05 -7.19089e-03
       H  1.49823e-04  4.64910e-03 -3.24684e-03
       O  1.25892e-03 -5.58051e-04 -7.45885e-04
       H -7.56705e-04 -1.42567e-03 -2.50392e-03
       H  6.84956e-04 -3.49569e-03  3.35239e-03
       O  7.06780e-04  3.47811e-04  2.31533e-04
       H -4.91658e-03  3.53832e-03 -5.07967e-03
       H -5.79226e-03  6.09372e-04  2.08431e-03
       O  6.34671e-04 -5.04075e-04  1.40746e-04
       H  4.60636e-03 -3.59634e-03  1.52293e-03
       H  1.71724e-03  3.66719e-04  2.77743e-03
       O -1.12739e-03  7.08270e-04  1.28674e-03
       H  3.52276e-03  1.78204e-03  4.29249e-03
       H  1.04716e-03  1.79818e-03 -3.67670e-03
       O -3.91835e-04 -2.45300e-04 -2.05018e-03
       H -9.92190e-03 -1.79574e-03  5.65539e-04
       H  2.82953e-03 -4.34188e-03  7.69256e-04
       O -1.00115e-03 -5.58301e-04  1.31624e-03
       H  2.39353e-03  2.20745e-04 -4.42313e-03
       H  8.59322e-03  5.87165e-03 -3.76665e-03
       O  1.33907e-03  4.99457e-04  5.03513e-04
       H  1.16308e-03 -2.37372e-03 -3.59035e-03
       H -4.06241e-03  3.72493e-03 -3.09443e-03
       O  1.68668e-04  1.68080e-04 -2.19741e-03
       H  8.54115e-03  1.48801e-03 -1.78975e-03
       H  2.49184e-04  5.94043e-04  2.09684e-03
       O -1.38896e-03  3.95384e-04  3.23326e-04
       H -8.79319e-04  9.39084e-04 -3.48169e-03
       H -2.86455e-03  6.99245e-04 -6.60878e-03
       O  6.16177e-04  1.24730e-03  1.05974e-03
       H -1.36737e-03 -1.18550e-03  1.90971e-04
       H  1.67228e-03  1.94706e-03 -7.69861e-04
       O  4.73602e-04 -8.10953e-04  1.65209e-03
       H -1.08827e-04 -5.86811e-03  1.79220e-03
       H  1.44838e-03 -5.35399e-03  7.74730e-03
       O -6.12009e-04 -1.08708e-03 -2.76421e-04
       H -1.47957e-03  2.82771e-03  3.76412e-03
       H -1.41221e-03  4.96464e-03 -3.89910e-03
       O -6.40513e-04 -7.75472e-04 -2.02115e-04
       H -3.66451e-04 -6.19467e-04  4.03645e-03
       H -1.89505e-04  5.19457e-03 -4.38329e-04
       O  3.88954e-04  1.10932e-03 -1.68620e-04
       H  1.30182e-03  3.39682e-03  5.83061e-03
       H -4.44666e-05 -5.48601e-03 -7.36978e-04
       O  2.80782e-04 -1.67116e-04 -1.77249e-05
       H -1.58684e-03 -4.39363e-03  8.35016e-04
       H -1.73038e-03  5.41499e-03 -1.61086e-03
       O  1.25915e-03 -1.17913e-03 -5.93155e-04
       H -1.96789e-03  9.30216e-04 -2.41611e-03
       H -2.17373e-03  2.40503e-03  1.29010e-03
       O  2.60023e-04  8.53139e-05  2.27782e-03
       H  2.01885e-03  7.28749e-04 -1.21291e-03
       H -2.63345e-03  6.93268e-04  5.09694e-04
       O  2.67196e-04 -6.88075e-04 -1.81394e-04
       H -6.45488e-03 -3.23355e-03 -6.27503e-04
       H -1.05268e-03  1.34501e-03  2.81303e-03
       O  5.08949e-04 -1.16888e-03 -1.25840e-03
       H -9.00486e-05 -8.60832e-03 -3.20478e-03
       H  4.30352e-05  4.46790e-03  1.04913e-03
       O -1.62498e-03 -2.01720e-03 -5.88596e-04
       H -5.29975e-04 -4.40639e-03  5.15756e-03
       H  2.39211e-03 -4.11112e-03  1.72120e-03
       O  4.90688e-04 -2.33562e-04 -2.16239e-04
       H  1.20355e-03 -8.35898e-04 -4.93333e-03
       H  5.21021e-03 -3.53450e-03 -4.01571e-03
       O -3.74111e-04 -1.29757e-03  1.37584e-03
       H  3.49749e-03  1.57000e-03  1.00323e-03
       H  1.70116e-04 -1.31109e-03  3.13017e-03
       O  1.32706e-04  3.75920e-06 -1.82995e-05
       H  2.06183e-03 -2.72252e-03 -1.97167e-04
       H -2.71289e-03 -6.02485e-03  2.41632e-03
       O -7.16462e-04 -5.66987e-04  1.30666e-03
       H  5.42517e-03 -4.91865e-04  2.70099e-03
       H -4.16349e-03 -2.00349e-03  8.74980e-04
       O  1.71035e-04  3.53020e-04 -1.27419e-03
       H -2.76103e-03  8.74165e-04  1.34263e-03
       H -1.46124e-03 -9.32218e-04  4.88918e-03
       O -1.14946e-03  6.37594e-04 -1.39673e-03
       H -2.99480e-03  3.52659e-03  2.33634e-03
       H -1.59043e-03 -3.45206e-03  4.78202e-03
       O  1.98251e-04 -1.22942e-03  5.47018e-04
       H -1.58309e-03  2.43312e-04 -1.35602e-03
       H  2.20610e-03  6.41745e-03  3.00764e-03
       O  3.62228e-04  2.40861e-05  9.52625e-04
       H -2.29602e-03 -3.16389e-03  5.44821e-04
       H  1.75195e-03  1.11853e-03  2.19652e-03
192
# CELL(abcABC):   16.99620    29.43815    27.67315    90.00000    90.00000    90.00000  Step:          20  Bead:      16 velocities{atomic_unit}  cell{atomic_unit}
       O  1.34490e-05 -9.23332e-04 -8.50679e-05
       H  2.59058e-03 -4.01201e-03  2.51118e-04
       H -1.01051e-02  1.76760e-03  1.49897e-03
       O  1.60869e-03  9.43358e-04  3.06687e-04
       H  2.22770e-03 -1.83976e-03  6.71350e-05
       H  6.92305e-03 -3.57893e-03  1.14393e-03
       O -6.86621e-04 -5.56322e-04 -1.62278e-03
       H -2.41887e-03 -2.61669e-04 -3.85345e-03
       H -5.54680e-03 -8.03919e-04  2.53923e-03
       O -1.08725e-05  1.03440e-03 -1.73920e-04
       H  1.01445e-03  1.60732e-03 -1.00226e-03
       H -3.96480e-03 -2.51131e-03  4.44357e-03
       O  1.83612e-03 -1.93002e-03  5.43090e-04
       H  1.40106e-03 -7.55954e-04 -7.65635e-04
       H  2.26494e-03 -6.92535e-03 -3.25331e-03
       O  2.79608e-04 -8.43024e-04  8.27438e-04
       H -2.73764e-03  7.48199e-03 -1.27438e-03
       H  2.68039e-03 -1.04306e-03  5.67423e-03
       O -7.50699e-04  1.01630e-03  1.16428e-04
       H -5.87739e-03 -2.19075e-03 -5.36032e-03
       H  1.68750e-03  4.47662e-03 -1.34779e-03
       O -1.58172e-03 -4.01695e-04  6.73929e-04
       H  4.52995e-03 -6.62159e-04  2.60419e-03
       H -4.82488e-03 -2.85197e-03  3.15417e-03
       O -9.93986e-04  7.18500e-04  1.54398e-04
       H  8.71116e-04  4.78488e-03 -2.12618e-03
       H -8.19809e-05  2.84355e-03  2.47194e-03
       O  6.07899e-05 -3.99313e-04  3.89250e-05
       H -2.79418e-03 -2.76464e-03  8.66328e-03
       H -2.30375e-03 -6.00348e-03 -2.65665e-03
       O -1.90891e-03 -1.08322e-03 -9.40722e-04
       H -1.51649e-03  3.00195e-04  8.51088e-03
       H -2.63584e-03 -3.94192e-03  3.36338e-03
       O  6.23839e-04  1.28346e-03  1.29304e-04
       H -4.73896e-03  8.57037e-03  1.16079e-03
       H -1.19562e-03  4.64013e-03  5.88866e-03
       O -6.81519e-04 -5.41432e-04 -8.29302e-04
       H  4.55719e-03 -3.99583e-03 -4.79665e-03
       H  7.28016e-04 -3.35281e-03  2.35952e-03
       O  5.59978e-04  1.09630e-04  1.08058e-03
       H  6.41392e-03  4.79678e-03  3.45460e-03
       H -1.56210e-03 -4.66539e-03 -3.45288e-03
       O -9.59262e-04  9.68660e-04 -3.92916e-04
       H -4.53506e-03 -3.67537e-04 -1.73528e-04
       H  9.39218e-04  3.50577e-03  2.77183e-03
       O  1.40364e-04 -1.16263e-03  3.13179e-05
       H -2.51695e-03 -5.26614e-03  7.07854e-03
       H  3.42033e-03  3.32567e-03 -7.74247e-03
       O -1.88844e-04  7.32645e-04 -1.76614e-04
       H -1.87748e-03 -6.20702e-03 -4.14798e-03
       H  2.61307e-03 -4.15437e-03  6.08142e-04
       O -3.57630e-04  1.37121e-04 -5.72713e-04
       H -5.39579e-04  1.29893e-03 -2.55165e-03
       H -3.05157e-03  3.27042e-05  4.71702e-03
       O -5.65345e-04  7.99523e-04 -3.43383e-04
       H -3.06794e-03  4.61648e-03 -2.92463e-03
       H  4.94866e-03  9.93933e-04 -4.05787e-03
       O  6.28395e-04 -2.77995e-04 -1.43940e-03
       H  7.16819e-03 -4.07341e-03 -4.67340e-03
       H -5.88386e-05  8.09908e-03 -8.36487e-04
       O -1.04092e-03  2.36237e-04 -1.34465e-03
       H  1.13270e-03 -1.31897e-03  2.82745e-03
       H  2.62660e-03  4.40192e-04  2.03193e-03
       O  1.48180e-03 -3.46587e-04  4.41113e-04
       H -1.62277e-03  7.51892e-03  2.62537e-03
       H  1.27145e-03  3.44470e-03 -9.21417e-04
       O -1.22178e-03 -1.90845e-03  8.08651e-04
       H -6.63942e-03 -2.10110e-04  5.05165e-03
       H  3.12764e-03 -1.58725e-03 -1.00022e-02
       O  1.44150e-04  4.01075e-04 -6.03879e-04
       H -1.26370e-03  6.71902e-03 -2.10506e-03
       H -1.81791e-03 -1.80973e-03 -6.37544e-03
       O  1.16230e-03  5.12844e-04 -6.73858e-04
       H -3.10451e-03 -6.56694e-03 -3.27781e-03
       H  9.82931e-04 -2.31962e-03 -4.37504e-04
       O  1.16113e-03 -3.12008e-04 -8.69773e-04
       H  3.71683e-04  4.97185e-05  1.08382e-03
       H  2.00205e-03 -5.15936e-03  3.80788e-03
       O -1.28493e-03 -7.16568e-04 -8.82822e-04
       H  1.89170e-03 -2.52214e-03 -2.06462e-03
       H -5.19873e-03  4.85268e-03  3.92819e-03
       O -4.44504e-04 -1.62026e-04 -3.55052e-04
       H -3.10341e-03  4.86263e-04  3.12249e-03
       H -7.94545e-03 -5.24880e-04  4.00791e-03
       O  1.17675e-03 -1.84774e-03  2.78149e-04
       H -3.07138e-03 -1.74808e-03 -1.52538e-05
       H  3.90899e-03 -4.46253e-03  7.94538e-03
       O  2.26896e-04  1.08758e-03  9.32147e-04
       H  4.30636e-03 -1.87324e-03  1.22842e-03
       H  1.62999e-03  1.79553e-03  3.38476e-03
       O -3.54087e-04 -3.01621e-04  3.03703e-06
       H  4.72495e-03  5.26530e-03  6.58821e-03
       H  2.25409e-03 -7.78058e-04 -3.73366e-03
       O -8.22637e-04 -9.22473e-04  9.95482e-04
       H  3.29467e-03  4.38451e-03  2.22739e-03
       H  6.06942e-03  2.18538e-03 -2.23735e-03
       O -5.20263e-04 -1.06067e-03 -1.80171e-04
       H -2.79704e-03 -2.44846e-03 -7.13716e-03
       H  2.77990e-03 -2.68452e-04  5.61675e-03
       O -1.47893e-04 -3.63090e-04 -5.85408e-04
       H  8.61563e-03  6.42341e-04  2.97349e-03
       H  2.25489e-03 -2.71815e-03  2.30350e-03
       O -1.61760e-03  2.59729e-04  3.85422e-04
       H  5.74504e-04 -3.50472e-03 -6.32794e-05
       H  6.86393e-03  3.38209e-03 -3.11929e-03
       O  1.54473e-03 -8.32121e-04 -6.94609e-04
       H -3.40635e-03 -1.77271e-03 -5.34975e-04
       H -3.11438e-03 -4.90828e-03  4.99343e-03
       O  1.43035e-03  1.15572e-03  1.17771e-03
       H -2.46396e-03 -5.58769e-03  6.78657e-04
       H -9.24036e-04 -4.54253e-03 -1.14657e-03
       O -1.31467e-03 -1.08132e-03 -4.21853e-04
       H -2.34741e-03  1.35376e-04  2.48027e-03
       H  3.23410e-04  1.96565e-03  3.83400e-03
       O  7.61404e-04 -2.77016e-06  3.18396e-04
       H -2.03190e-04 -9.54527e-04  6.10933e-03
       H -3.93756e-04  1.67981e-04 -2.35367e-03
       O  2.50648e-04 -2.56444e-04 -7.80721e-04
       H -5.84064e-03  1.86009e-03  1.76082e-03
       H -7.81067e-04  2.85629e-03 -1.60844e-03
       O  2.05574e-03  8.39683e-04 -1.42118e-03
       H -2.31053e-03 -7.69489e-03 -4.75588e-03
       H -3.12466e-03  7.99081e-06  1.80222e-03
       O  5.47178e-04 -1.03967e-03 -2.53187e-03
       H -3.36554e-03  1.80628e-03 -3.19839e-03
       H  3.84435e-03 -5.71830e-03  1.50130e-03
       O -9.12296e-04 -1.36661e-03  1.84441e-03
       H -2.64990e-03  2.57604e-03  3.12605e-03
       H -1.18766e-03  8.80532e-03  3.76900e-03
       O  1.37985e-03  9.41551e-06  9.38274e-04
       H -5.61114e-03 -1.11059e-03 -4.66061e-03
       H -1.21488e-03 -1.05868e-03  2.14431e-03
       O -9.07824e-04 -2.69544e-04 -6.78843e-04
       H  4.77646e-03  4.73684e-03 -6.27872e-03
       H  3.51907e-03  7.96627e-04  5.84780e-04
       O  8.90900e-04 -2.16006e-03 -3.40472e-04
       H  6.40676e-03 -2.83274e-03 -1.39910e-05
       H -1.85753e-03  4.88678e-03 -3.31120e-03
       O  1.37613e-03  1.98209e-03  5.34795e-04
       H -2.96187e-03 -1.97103e-03  5.84253e-03
       H -3.73408e-04  5.26734e-04  2.08568e-03
       O  5.31481e-04 -1.71658e-04  9.03833e-04
       H  1.31794e-03  2.73996e-03  1.20911e-03
       H  2.13834e-03  1.09791e-03 -1.45831e-03
       O  2.89260e-04  2.18372e-03  2.85865e-04
       H -1.11575e-03 -4.36613e-03 -3.49148e-03
       H -5.20143e-04 -7.20281e-03  2.45946e-03
       O  5.18642e-04  3.73809e-04  2.94303e-04
       H  4.93596e-03 -4.15197e-03 -1.65113e-03
       H  1.59036e-03  3.71159e-03 -6.00164e-03
       O -2.31570e-03 -2.42652e-04 -2.06319e-04
       H  3.80780e-03 -2.77242e-03 -1.84722e-04
       H  2.19489e-04 -3.56571e-03 -3.30592e-03
       O -1.34180e-03 -4.45415e-04  1.78233e-03
       H  4.01115e-03  3.80022e-04  2.51081e-03
       H -7.66190e-03  1.08321e-03  3.45630e-03
       O -3.11238e-04  5.48398e-04  7.95758e-04
       H -1.13239e-03  2.21715e-03 -4.32801e-03
       H -4.21033e-03 -1.93415e-03 -2.15593e-03
       O -5.38912e-04  1.19178e-03  7.56271e-04
       H  3.27216e-03 -2.74866e-03 -2.97872e-03
       H -6.17086e-03 -1.48024e-03 -3.28898e-03
       O -7.95268e-04 -1.13183e-03  5.14617e-04
       H -1.36346e-03 -1.47498e-03  3.61721e-03
       H  4.27908e-03  7.36783e-03 -2.87762e-03
       O -8.14803e-04  1.42249e-03 -4.20827e-04
       H -7.57141e-04 -3.20702e-03 -5.99916e-03
       H  2.71014e-03  1.59314e-03  4.84537e-03
       O -3.70224e-04 -6.18790e-04 -1.39500e-03
       H -7.61633e-04  7.58910e-04  1.46896e-04
       H  3.37759e-04 -1.45488e-03 -9.67895e-04
       O  8.85984e-04 -1.17419e-03  9.72136e-04
       H -2.90806e-03  2.45055e-03 -3.81510e-03
       H -7.61155e-03  6.48579e-04  4.45984e-03
       O  3.34424e-04 -1.21633e-04  6.91836e-04
       H -2.38724e-03  1.63844e-03 -5.50828e-03
       H -2.48033e-03  6.28198e-03  1.87132e-03
       O -5.46702e-04  7.87045e-04 -1.52488e-03
       H  5.15585e-03  7.36523e-04  1.92582e-03
       H  2.18071e-03  1.36744e-03  4.70865e-03
       O  2.39569e-03 -1.91766e-04 -1.34660e-03
       H  7.39574e-04  2.13478e-03  4.98102e-04
       H  2.42493e-03  2.30850e-03 -3.15888e-03
       O  6.30068e-04  3.74015e-04  1.61567e-03
       H -1.31472e-04 -2.39746e-03  3.52152e-03
       H  4.96481e-03 -2.50162e-03 -5.25561e-03
       O  8.36920e-05  2.91592e-04 -1.26642e-03
       H -4.84129e-03  2.54639e-03 -4.84067e-03
       H -1.29569e-03 -1.15722e-04  3.57951e-03
       O -5.60617e-04  4.91181e-04  8.59113e-04
       H  2.97470e-03  4.50971e-03  2.30715e-03
       H  3.65713e-03 -4.95659e-03 -3.06729e-03
192
# CELL(abcABC):   16.99620    29.43815    27.67315    90.00000    90.00000    90.00000  Step:          30  Bead:      16 velocities{atomic_unit}  cell{atomic_unit}
       O -4.89742e-04  7.88250e-04  9.43078e-04
       H  7.74907e-04  5.97662e-03  3.02568e-03
       H -2.15838e-03 -3.45746e-03  2.12218e-03
       O  5.89612e-05  9.58825e-04  1.01591e-03
       H -4.29555e-03 -1.88352e-03 -3.97639e-03
       H -1.02501e-03  1.50426e-03 -1.77453e-03
       O  6.10161e-04 -5.11034e-06  8.57127e-04
       H  7.68476e-04  7.72449e-04 -5.11739e-03
       H  1.00530e-02 -3.09711e-03 -4.71798e-03
       O -8.32727e-05  1.00667e-04 -3.69761e-04
       H -9.94223e-04 -6.68726e-03 -5.57818e-04
       H -1.20675e-03 -5.96082e-04 -3.45045e-03
       O  8.21736e-04 -3.79648e-04 -4.26605e-04
       H -2.01710e-03  7.56594e-03  3.70944e-03
       H  4.54558e-03  5.11684e-03  6.04421e-04
       O -3.43417e-04 -5.09325e-04 -2.91327e-04
       H  2.30428e-03  2.78043e-03  3.23948e-03
       H -2.69646e-03 -5.68502e-03  1.08926e-03
       O  8.04397e-04  1.39118e-03  1.81581e-04
       H -7.98369e-04  8.92421e-03  6.13853e-03
       H  1.26136e-03  1.56519e-03  4.41529e-04
       O  2.52643e-04  4.66447e-04  5.37092e-05
       H  5.31392e-03  1.42126e-03  3.48062e-03
       H -4.74980e-03 -1.03725e-03  3.67943e-03
       O -2.48275e-03  1.65374e-03 -9.33120e-04
       H  2.77961e-03 -1.00328e-03  1.75671e-03
       H  1.47325e-04  2.36592e-03 -5.56199e-04
       O  5.69180e-04 -2.13507e-03 -1.75031e-04
       H -2.35519e-03  8.53816e-04  1.46824e-03
       H -1.42627e-03  7.15670e-03  3.86314e-03
       O  6.52051e-04 -8.54045e-04 -8.37600e-04
       H  1.99706e-03  3.00185e-04  5.63392e-04
       H  8.10001e-04 -1.93116e-03 -2.99021e-03
       O  4.73341e-04 -6.89386e-04 -2.79871e-04
       H -6.59867e-03  1.40494e-03  3.10646e-04