192
# CELL(abcABC):   16.99620    29.43815    27.67315    90.00000    90.00000    90.00000  Step:           0  Bead:       3 velocities{atomic_unit}  cell{atomic_unit}
       O -1.47157e-04 -1.42609e-03 -1.34137e-03
       H  8.59887e-04  6.27804e-03  1.74611e-03
       H  1.74790e-03  3.14826e-03 -4.18431e-03
       O -2.77856e-04 -4.56080e-04 -9.45712e-04
       H -7.27393e-03  8.71705e-03 -9.90119e-03
       H -6.40768e-04 -2.24758e-03 -1.26429e-03
       O -4.05398e-04  7.53734e-04  7.12738e-06
       H -1.61773e-03  4.91893e-03  1.80133e-04
       H  4.10178e-03  3.00758e-03 -2.21033e-03
       O -2.03426e-04  5.83836e-05 -4.90727e-04
       H  1.16179e-04  2.22469e-03  3.89454e-03
       H -7.82768e-03  7.54957e-03 -2.82069e-03
       O -4.32208e-04  6.89209e-04  6.36369e-04
       H -4.13105e-03 -4.73071e-06 -3.66713e-03
       H  4.70734e-03 -3.21160e-03  2.43195e-03
       O  9.36809e-04  1.25578e-03  3.89095e-04
       H -5.51384e-03  2.38606e-03 -5.54645e-03
       H -3.85432e-03 -2.12031e-03 -7.61594e-03
       O -3.12032e-04  6.02010e-04 -2.67611e-04
       H  3.45959e-03 -1.79116e-03  8.59633e-04
       H  6.15732e-04  1.98277e-03 -5.31069e-03
       O  1.92636e-04  7.62672e-04 -7.43575e-04
       H -1.03627e-02  4.25207e-05 -5.90913e-03
       H -1.58286e-03  1.81157e-03 -5.63912e-03
       O -9.41296e-04 -1.61795e-03  1.90211e-03
       H -2.22929e-03  1.07806e-03  8.84029e-03
       H  7.14649e-04 -2.14928e-03 -7.04697e-03
       O  2.12315e-04 -1.59321e-03  2.24094e-03
       H  7.67041e-04 -2.48552e-03 -1.63602e-03
       H -3.36116e-03  2.12288e-03 -5.22668e-03
       O  2.75823e-04  1.22263e-04  4.41092e-04
       H -6.42804e-03 -5.60638e-04  6.14687e-04
       H -2.76413e-03 -5.90076e-03  1.04315e-03
       O -3.29417e-04 -4.88586e-04  3.73558e-04
       H -1.92129e-06 -2.75875e-03  1.25890e-03
       H  5.06760e-04  2.77064e-03 -6.07665e-03
       O  6.83081e-04 -6.54583e-05  3.00568e-04
       H  8.60387e-03 -9.12397e-03 -3.55477e-03
       H -3.45242e-03 -5.60514e-03  7.70335e-03
       O  8.07617e-04  1.79333e-03 -1.26828e-03
       H  2.55922e-03  1.01860e-03 -2.57025e-03
       H  1.10379e-03  4.37919e-03  5.57910e-03
       O  7.77727e-04  1.66662e-05 -9.37099e-04
       H  3.65983e-03  9.87856e-04 -4.82970e-03
       H  2.91322e-03 -2.58061e-03  6.11676e-03
       O -5.86699e-05  3.91032e-05  3.47617e-04
       H -1.28058e-03  1.89216e-03 -3.59065e-03
       H -3.50830e-04 -7.85186e-04  5.42019e-03
       O  1.61738e-03 -5.40952e-04  2.55342e-04
       H -5.63665e-05 -2.55916e-03  3.19261e-03
       H -4.06382e-03  8.06302e-03  5.84322e-03
       O -1.14384e-03  1.07633e-03  1.36589e-03
       H -2.49699e-04  3.88699e-03 -1.10142e-03
       H -3.57917e-03  6.33581e-03 -1.00045e-02
       O  9.21762e-04 -1.39409e-03 -2.75960e-03
       H -5.20381e-03  3.83338e-03 -1.32446e-03
       H -4.09860e-03 -5.50750e-03  1.13401e-03
       O -3.78840e-04 -1.92081e-03 -1.63339e-03
       H -2.42615e-03 -3.74498e-03  4.09644e-04
       H  2.50203e-03 -2.84230e-03 -4.14720e-03
       O -5.64660e-04 -2.15977e-03  6.61247e-04
       H  5.30053e-04 -5.46078e-03 -3.12396e-03
       H -3.51147e-03  3.22905e-03  2.29301e-03
       O -1.05630e-03  2.77280e-03 -7.80241e-04
       H -8.54509e-05  4.17614e-03  8.55928e-03
       H  9.07292e-03  2.62107e-04  4.99606e-03
       O  5.66437e-04  7.38797e-04  5.39991e-04
       H  3.78341e-03  3.04180e-04 -6.08401e-03
       H -5.09558e-03  7.21690e-03  1.24171e-03
       O -1.54227e-04  1.10017e-03 -8.05818e-04
       H  2.18156e-03 -3.97195e-03 -3.21544e-03
       H  3.37978e-03 -1.01244e-03 -4.64092e-03
       O -5.29456e-04  1.56298e-03 -2.14389e-04
       H -3.52394e-03 -2.15752e-03  1.64025e-03
       H -2.75237e-03  6.41189e-04  6.01756e-03
       O  2.17406e-04 -6.55299e-04 -9.54263e-04
       H  7.60631e-04 -5.06162e-03 -5.62294e-03
       H  3.52020e-03 -1.09477e-03 -4.18970e-03
       O -5.48940e-04  1.59297e-04 -1.12774e-03
       H  6.29391e-04 -2.32464e-03  3.70329e-03
       H -6.65276e-03  1.09942e-03  5.04263e-03
       O  1.09874e-03  4.05491e-04 -6.16027e-04
       H -3.65065e-03 -8.41296e-03  1.93974e-03
       H -2.29182e-03  1.96155e-03 -4.16660e-03
       O  9.21425e-05  6.22075e-04  6.22847e-04
       H  5.84672e-03 -1.55014e-03  3.58795e-03
       H  7.74013e-04  1.71645e-03  4.33253e-04
       O  6.38704e-04  1.17937e-04 -4.31404e-06
       H  3.67267e-03 -4.53207e-03 -1.08838e-03
       H  4.17589e-03 -2.67620e-04  4.20625e-03
       O  1.72742e-03 -3.90702e-04  6.36590e-04
       H  2.56337e-03  3.58490e-03 -9.38565e-04
       H -8.86245e-04 -4.07802e-04  2.51202e-03
       O  1.37462e-04  6.21854e-04  1.35616e-04
       H -4.12180e-03 -1.58204e-03  4.68251e-03
       H  3.73466e-03  7.12261e-03  3.03956e-03
       O -1.26670e-04  4.21404e-05 -9.17080e-04
       H  2.60384e-03 -5.45293e-04  5.12410e-03
       H  4.61382e-03  2.41821e-04 -2.14042e-03
       O  2.60885e-06  2.17453e-04  3.10625e-04
       H -1.52281e-03 -4.42360e-03  2.93856e-03
       H  4.41085e-03  3.43030e-03  5.91915e-04
       O  9.05879e-04 -1.54235e-03  1.44499e-03
       H  3.74187e-03 -2.88371e-03 -4.24092e-03
       H -6.45167e-03 -2.73711e-04 -2.46264e-03
       O -8.49268e-04 -3.88075e-04  9.37542e-04
       H  1.37671e-03 -1.57376e-03  8.72945e-04
       H -2.64366e-03  5.93678e-04  6.11515e-04
       O -6.59267e-04  1.86164e-03 -1.95328e-03
       H -2.80197e-03  6.41959e-04  2.87911e-03
       H -3.32554e-05 -7.62897e-03  1.38051e-03
       O -1.39615e-03 -1.10014e-03  3.76920e-04
       H -4.71968e-03  5.11702e-03 -4.50055e-03
       H -2.58735e-03 -1.76374e-03  5.16688e-03
       O -2.02401e-04 -1.16868e-03  1.83822e-03
       H -6.49546e-04 -1.30412e-03  2.86527e-03
       H  1.28715e-03  3.04211e-03  6.00345e-03
       O  2.53001e-04  4.10884e-04 -7.56850e-05
       H  7.14700e-03 -6.92737e-03  6.62466e-03
       H -1.37998e-04 -3.44216e-03 -7.29058e-03
       O  1.11966e-03 -2.20394e-03 -3.19295e-04
       H  2.76926e-03  1.13476e-03 -1.18657e-03
       H  8.09661e-03 -2.46352e-03 -2.07741e-03
       O  2.41145e-03 -2.95991e-04  7.58365e-04
       H -6.67696e-03 -1.01542e-03 -2.00379e-03
       H  2.67799e-03  3.39694e-04 -7.00102e-03
       O -4.97353e-04  2.11344e-04  1.07739e-03
       H  1.94154e-04  3.22502e-03 -8.03165e-03
       H -1.83054e-03 -3.59392e-03  5.12748e-03
       O -6.90297e-04  4.24979e-04  7.28582e-04
       H -3.12614e-03 -4.66201e-03  2.53507e-03
       H -4.44369e-03 -4.95997e-03 -9.79541e-04
       O -2.89592e-04  1.08447e-03 -4.53182e-04
       H  7.64573e-03 -2.07816e-03  6.71009e-03
       H  3.95664e-03  5.26001e-03  9.57332e-04
       O  1.04555e-03  3.83456e-04 -1.40291e-03
       H  3.09562e-03 -1.88484e-04 -3.92114e-04
       H -1.78711e-03 -9.56659e-04 -3.40866e-03
       O  7.84273e-04  4.40439e-04  4.57253e-04
       H -2.88262e-03 -1.75018e-03 -2.34671e-03
       H -1.20873e-03 -3.35109e-03 -8.52882e-03
       O -1.23113e-03 -1.33276e-03  3.79870e-05
       H -1.45661e-03  1.82341e-03 -2.79991e-03
       H  2.97718e-03  1.58230e-03  3.70151e-03
       O -5.03087e-04 -7.91380e-04  7.23772e-04
       H -1.29450e-03  2.46705e-03 -3.01478e-03
       H -4.06186e-03  3.74570e-03  6.87455e-04
       O -2.85967e-04 -6.35279e-04 -1.06264e-04
       H  1.37599e-03  1.23012e-03 -6.78912e-03
       H -4.46183e-03 -4.57494e-03  3.68110e-03
       O  1.59552e-04  1.29861e-03  1.34812e-03
       H -2.56127e-03  8.82855e-03 -9.63144e-04
       H -1.03445e-03 -9.61448e-04  4.00739e-03
       O  3.00597e-04 -7.09810e-04  7.89083e-04
       H  5.87045e-03  1.05884e-03  2.34172e-03
       H  1.29063e-03  3.12714e-03  7.34505e-04
       O -2.96812e-04  9.27028e-04  1.15280e-03
       H  3.38626e-03  5.69647e-03  5.17736e-03
       H  1.94935e-03 -2.64925e-03  4.41537e-03
       O  6.12459e-04 -2.86334e-03 -2.91870e-04
       H  4.40872e-04  1.40877e-03  8.68473e-04
       H  3.57620e-03  2.93075e-04  1.25594e-03
       O -2.04195e-04  6.33264e-04 -1.17755e-03
       H -3.46250e-04  1.01406e-03 -8.37156e-03
       H  1.14912e-03  1.64505e-03  1.94356e-03
       O -1.47507e-03 -1.03576e-03 -5.03311e-04
       H -2.82934e-03  2.62716e-03 -1.33486e-03
       H -4.10550e-03 -9.08407e-04  2.91547e-03
       O -7.27882e-04 -2.33462e-04  4.27197e-04
       H  9.27054e-04  1.73766e-04 -1.56643e-03
       H -2.49291e-03 -1.07998e-03  5.77219e-03
       O -1.49795e-03 -6.39617e-04  5.83641e-04
       H -3.90302e-03 -3.48692e-03  1.93010e-03
       H -1.47727e-03 -3.03409e-03 -3.36798e-03
       O -5.21948e-04  9.93927e-04  1.06291e-03
       H  1.53303e-03 -1.58135e-04 -2.54574e-03
       H -5.39642e-03 -5.42782e-03 -4.63868e-03
       O  1.33244e-03  1.36790e-03 -8.47827e-04
       H  6.04919e-04  4.16907e-03  1.88336e-03
       H -1.80383e-03 -3.75229e-03  2.64099e-03
       O  1.78366e-03  3.52884e-04 -3.24280e-04
       H -3.52948e-03  4.99122e-04  2.06897e-03
       H -1.81720e-03  3.07499e-03 -2.46390e-03
       O  6.57537e-04  2.32971e-03  5.61120e-04
       H -1.48112e-03 -8.49375e-04  4.09567e-03
       H -4.32372e-03  3.60598e-03  1.11629e-03
       O -3.81177e-04 -1.96537e-04  9.95347e-04
       H  2.09894e-03 -8.29271e-04 -7.03367e-03
       H  1.80103e-03  3.36973e-03  2.96354e-03
       O -1.00667e-03  1.12795e-03 -8.52365e-04
       H -2.44929e-04  6.09794e-04 -3.25702e-03
       H -4.26229e-03  4.29628e-03 -5.88694e-03
192
# CELL(abcABC):   16.99620    29.43815    27.67315    90.00000    90.00000    90.00000  Step:          10  Bead:       3 velocities{atomic_unit}  cell{atomic_unit}
       O  7.55254e-04 -7.20645e-04 -7.61665e-04
       H  5.43595e-04  4.83100e-04  2.13176e-03
       H  8.50110e-04 -3.58779e-03  2.13049e-03
       O  8.68909e-04  5.80174e-04  2.93785e-04
       H -1.40432e-04 -3.15739e-03 -2.95053e-03
       H  8.92804e-03  8.91460e-04  3.44640e-04
       O  1.71265e-03 -3.17984e-04  1.86714e-03
       H -1.94520e-05  6.26265e-03 -3.44798e-03
       H  2.37077e-03 -3.82213e-03  4.76839e-04
       O  1.37917e-07  1.35233e-03 -2.24205e-03
       H  3.62393e-03 -4.97713e-03  2.39571e-03
       H -3.66199e-03  8.80555e-03 -3.07351e-03
       O -1.53451e-04 -8.37198e-04  7.47530e-04
       H  1.95270e-04 -1.24281e-03  4.73971e-03
       H  1.79866e-03 -3.79696e-03  1.87532e-03
       O -1.43708e-03 -1.14478e-03  1.11711e-03
       H  1.90679e-03  6.64903e-04 -1.03133e-04
       H -3.59766e-04  4.91318e-03 -1.94911e-03
       O -6.73916e-04  9.34919e-04  9.43259e-04
       H -3.70297e-03  5.75055e-03  2.76898e-04
       H -2.21430e-03  2.31120e-03 -2.43813e-03
       O -2.43742e-04 -1.02361e-03  1.22128e-03
       H  2.74552e-03 -2.46938e-03  2.38010e-03
       H  7.35347e-05  1.63586e-03 -4.16197e-03
       O -1.43107e-03 -2.63666e-04 -1.26668e-03
       H -1.96671e-03  4.04156e-03  2.73700e-03
       H  5.31771e-03  5.19990e-03 -2.32890e-03
       O -1.51927e-04  1.19409e-03  1.56444e-03
       H -7.40655e-03  1.33198e-03  5.34252e-03
       H -9.07740e-04 -6.51565e-03 -2.27986e-03
       O  9.11550e-04 -7.08867e-04  5.59867e-04
       H -1.11123e-03  2.33872e-03 -5.73975e-03
       H -4.96520e-03  1.16634e-03  2.82478e-03
       O  9.36857e-04 -4.57916e-04 -4.46378e-04
       H  1.95405e-03 -6.29108e-03 -5.72303e-03
       H  1.68282e-03  2.35008e-03 -2.40368e-03
       O -9.89717e-04 -1.25856e-03 -4.43901e-04
       H  9.97108e-04 -4.99005e-04  4.76216e-04
       H -4.94427e-04  9.06120e-03  3.65784e-03
       O  1.64262e-04  4.00902e-04 -1.67927e-03
       H  2.45971e-03 -4.38122e-03  4.84771e-03
       H  8.58866e-04  9.12801e-04 -1.73941e-03
       O -7.39921e-04  1.85878e-04 -8.66263e-04
       H -2.55574e-03 -1.29022e-03 -2.45744e-04
       H -5.94029e-03 -1.05394e-03  2.67257e-03
       O -1.38967e-04 -8.31022e-04  7.32673e-04
       H  1.43712e-03  7.48267e-04  4.82825e-03
       H -1.38622e-03  5.01817e-05  6.47033e-03
       O -7.54583e-04  1.69287e-03  7.91432e-04
       H  3.49776e-03 -6.50849e-03  7.51108e-04
       H  3.21257e-03  1.99858e-04 -4.14625e-03
       O -1.07010e-03 -1.77395e-05 -1.25678e-04
       H  2.34558e-03  2.43106e-03  5.05721e-03
       H  1.44458e-03  7.23759e-03  4.29287e-03
       O  3.88964e-04 -1.32941e-03 -5.10980e-04
       H -1.40075e-03 -4.56448e-03 -1.47792e-03
       H  3.81470e-03 -5.77417e-04  8.57907e-04
       O -1.02601e-03 -5.21065e-04 -1.03029e-03
       H  2.17569e-03 -1.24043e-03  2.56587e-03
       H  4.85487e-03 -2.68846e-03 -4.08544e-03
       O -1.29485e-03  4.89988e-04  6.69690e-06
       H -8.58449e-04 -1.85171e-03 -2.03337e-03
       H -4.10998e-03  9.82553e-04 -6.65178e-03
       O  3.03702e-04 -1.43222e-04  8.92554e-04
       H -5.38913e-03 -3.36914e-03 -3.00094e-03
       H  4.09789e-03  1.08358e-03 -6.75436e-04
       O  1.93718e-04 -5.31020e-04  2.08535e-04
       H  3.22684e-05 -1.05505e-03 -3.75473e-04
       H  3.77102e-03  4.16061e-04  2.61249e-03
       O -8.41570e-04 -1.83296e-04 -5.64259e-04
       H -3.92025e-03 -3.49803e-03 -1.83203e-03
       H  1.86976e-05  4.53944e-06  1.35789e-03
       O  5.45082e-04 -7.25860e-04 -1.49090e-04
       H  4.65463e-03 -1.49643e-03  9.06899e-03
       H -5.55751e-03 -3.32207e-03  2.53312e-03
       O -1.28892e-03 -2.42751e-04  9.45283e-04
       H  5.06480e-04  4.89812e-03  2.38243e-03
       H -2.41204e-03  1.16538e-03 -1.24093e-03
       O -5.61553e-04 -3.06196e-04 -8.60677e-04
       H  1.05947e-04 -2.41656e-03 -3.26421e-03
       H  2.73076e-03 -4.58083e-03 -1.81002e-03
       O  2.77147e-04 -1.62307e-03  1.87239e-03
       H  1.30529e-03  4.54873e-03 -1.07154e-03
       H  2.16981e-03 -5.03037e-04  2.35305e-03
       O  6.49449e-04 -1.78300e-04 -1.16819e-04
       H  7.97333e-04 -1.05785e-03 -2.05696e-03
       H  5.05340e-03 -2.19146e-04  3.55271e-03
       O -1.01021e-03 -8.85475e-04 -8.07733e-04
       H  1.33188e-03  3.15032e-03  4.63996e-03
       H  3.92371e-03  5.61213e-03 -1.73774e-03
       O -2.58344e-04  8.52711e-04 -1.36008e-03
       H -7.35276e-03  8.96307e-03  1.28457e-03
       H -1.12705e-03 -5.04120e-03  8.59620e-04
       O  7.77932e-04  9.45878e-04  1.33322e-03
       H -7.94460e-03 -8.81883e-04 -1.36859e-03
       H -3.59229e-03 -4.23202e-03  4.96003e-05
       O  6.94469e-04  9.88113e-04 -8.16347e-04
       H  1.12974e-03  1.19806e-03  5.65315e-04
       H  5.76992e-04 -3.76920e-03  3.03988e-03
       O  1.86045e-03 -1.68427e-03 -3.60770e-05
       H -2.35785e-03 -1.92502e-03  7.01632e-03
       H  1.56411e-03 -4.70103e-03 -6.42790e-03
       O  1.63302e-03 -1.99706e-03  4.13140e-04
       H -2.83472e-03 -1.33052e-03 -5.38349e-04
       H  2.74435e-03  1.14342e-03 -6.74962e-04
       O  6.98341e-05 -3.50947e-04 -3.56236e-04
       H  6.82265e-03  5.13912e-03 -5.99544e-03
       H -2.80646e-03 -6.42206e-03 -4.49928e-04
       O  7.78592e-04  7.71502e-04 -9.31296e-04
       H -1.30860e-03 -2.12560e-03  3.33665e-03
       H  1.20690e-03  2.73962e-03 -6.00514e-03
       O  1.13485e-04  3.36879e-04 -1.51359e-03
       H  1.92817e-03 -3.83209e-03 -3.90106e-04
       H -3.76767e-04  1.90930e-03 -4.07712e-03
       O -2.85391e-04 -1.03508e-03 -1.37591e-03
       H  1.55209e-03 -1.22486e-03  3.65808e-03
       H  2.42283e-03  8.60147e-04 -2.11729e-03
       O -5.94775e-04 -1.63866e-03 -5.53969e-04
       H  2.25383e-03 -6.93949e-03 -3.70937e-03
       H -3.41980e-03  4.58935e-03 -3.03335e-03
       O  4.32508e-04  3.36420e-04  5.90672e-04
       H  1.73124e-03 -6.06937e-03 -3.07486e-03
       H -2.40574e-03 -3.73315e-03 -5.88841e-03
       O  7.26395e-04 -5.25384e-04 -1.49106e-04
       H  2.54842e-03  1.74688e-03 -3.40316e-03
       H -1.34659e-03 -1.29171e-03  4.64726e-03
       O  1.48663e-03 -6.92527e-04  8.82424e-05
       H -1.45859e-03  5.72014e-03  8.77358e-04
       H -2.15539e-04  4.46215e-03 -9.00531e-04
       O  2.60040e-04 -1.26750e-03 -5.55965e-04
       H  5.65877e-03 -4.87556e-04  2.06733e-03
       H  3.97522e-03  1.27480e-03  1.20766e-02
       O -5.79139e-04  1.89472e-03 -5.16003e-04
       H -5.40540e-03 -1.28793e-03  1.74267e-03
       H -1.54761e-03 -3.64686e-03 -1.36011e-03
       O  1.02901e-03 -1.06964e-03 -2.33488e-03
       H -4.54654e-03 -2.49762e-03 -7.17967e-03
       H -4.35018e-03 -5.34837e-03  1.61700e-03
       O  2.43217e-04  3.15057e-04 -7.35651e-04
       H  4.54927e-03  6.63803e-04  2.68785e-03
       H -2.08885e-03  1.94178e-03  1.82420e-04
       O  2.38926e-04  1.82418e-03  9.51832e-04
       H -5.21607e-03  2.61513e-03 -9.91339e-04
       H  2.55434e-03  2.77880e-03 -3.95153e-03
       O  1.38413e-04  1.04983e-03  9.49029e-04
       H -1.46240e-04  6.29663e-03  2.75354e-04
       H  1.16159e-03 -4.42848e-03 -7.02411e-03
       O -6.67406e-04  1.05668e-04 -5.46482e-04
       H  6.16530e-03  6.19384e-03 -2.27099e-03
       H -1.29048e-03  2.75155e-03  2.85952e-04
       O -6.66546e-04 -9.51906e-04  2.29111e-04
       H  5.60127e-03  8.10745e-04 -2.83541e-03
       H  1.93709e-03  1.82750e-03  6.53083e-03
       O  1.82226e-04 -6.49278e-04  8.41281e-05
       H  6.05531e-03 -2.57644e-03  2.88802e-03
       H -9.74573e-04 -8.47420e-04 -4.45116e-03
       O  1.31468e-06  6.17815e-05 -3.03329e-04
       H -2.40112e-03  2.24552e-03 -2.77465e-03
       H -4.45917e-03 -3.27277e-04 -2.52135e-03
       O  3.10160e-04  2.20026e-05 -9.14316e-04
       H -3.75289e-03 -8.58356e-04  1.46778e-03
       H  6.04000e-03 -5.78221e-04 -4.29757e-03
       O -1.16510e-03 -1.38110e-03  8.82208e-05
       H  7.25264e-03  1.22297e-03  9.56053e-04
       H  2.01776e-03  6.62379e-03  2.76203e-04
       O  7.47803e-04  2.47876e-04  9.32139e-04
       H  6.85759e-04 -2.14679e-03  3.35639e-03
       H  2.63872e-03 -1.47963e-03 -2.75536e-03
       O -6.41119e-04  9.36406e-04  8.49118e-05
       H  1.05259e-03  2.01938e-03  7.32515e-03
       H  4.78517e-03 -7.20538e-03 -9.61741e-04
       O -3.83217e-04  1.12542e-04  3.19299e-04
       H  4.34933e-03 -5.34914e-03 -3.82732e-03
       H  2.33530e-03 -3.85701e-04  2.01768e-03
       O  1.47881e-04  2.25154e-03  3.16295e-04
       H -2.71847e-03 -3.55257e-05  1.84714e-03
       H  4.69325e-03  1.60967e-03  1.15121e-03
       O  1.50341e-03 -6.95693e-04 -8.53943e-04
       H -4.67610e-03  1.11479e-03  3.65761e-03
       H -3.13339e-03 -2.12843e-04 -1.13167e-03
       O -1.43097e-03  6.64675e-04 -5.37974e-04
       H -6.67163e-03 -1.01865e-02  2.79443e-03
       H  3.40047e-03 -1.72819e-03  3.27560e-03
       O  1.24842e-03 -1.16318e-03  1.38069e-03
       H  1.63663e-03  5.97155e-04  9.14881e-04
       H -6.80779e-03  7.62409e-03 -1.34814e-03
       O -9.83630e-04  1.44732e-03 -1.36195e-03
       H -1.24384e-03  4.27096e-03  4.51656e-03
       H  1.17169e-03  1.31203e-03  1.14849e-03
       O -8.10560e-05  4.68534e-04 -8.24056e-04
       H -1.70824e-03  3.83778e-03 -3.12850e-03
       H -2.65188e-04  2.73429e-03 -1.81104e-03
192
# CELL(abcABC):   16.99620    29.43815    27.67315    90.00000    90.00000    90.00000  Step:          20  Bead:       3 velocities{atomic_unit}  cell{atomic_unit}
       O  1.07048e-03  2.06324e-04 -4.38551e-04
       H -4.08757e-04  1.11770e-03  4.12685e-03
       H -4.05356e-03 -1.00199e-03  2.97978e-03
       O  8.01315e-04  9.79247e-04 -3.79623e-04
       H  1.88397e-03  3.26531e-03 -3.10538e-03
       H  1.28563e-03 -5.14557e-03  2.86744e-03
       O -7.22436e-04 -1.35866e-03 -1.05988e-06
       H  4.45134e-03 -5.90046e-03 -1.28259e-03
       H -2.30769e-03  5.42950e-03  1.09961e-03
       O -4.77556e-04  3.11097e-04  1.43119e-04
       H -5.05093e-03 -6.78026e-04  1.95907e-03
       H -2.71489e-03 -2.19558e-04 -2.70623e-03
       O  8.22268e-05 -1.42828e-03 -9.82957e-04
       H  8.75594e-05  1.42770e-03  7.70022e-04
       H  4.07639e-03 -6.31015e-03 -2.82143e-03
       O  2.95838e-04  9.20831e-05 -1.72555e-03
       H -1.49323e-03 -1.35033e-03  1.25952e-03
       H  4.75915e-03 -3.68624e-03 -5.30160e-03
       O -4.27783e-04 -5.60020e-05  6.19041e-04
       H  2.49112e-03  1.23660e-03 -1.40682e-03
       H -4.59307e-03 -3.72801e-03 -7.14123e-04
       O  9.75330e-04  4.08108e-04  1.70585e-03
       H -1.68730e-03 -4.27546e-04 -1.76471e-03
       H  4.91011e-04 -2.72771e-03  2.58716e-03
       O -9.54740e-05  3.67345e-04  1.86158e-05
       H -6.51796e-03 -2.92152e-03 -8.87639e-04
       H  4.16217e-03  2.97093e-03 -4.91787e-03
       O  1.29501e-03 -3.67691e-04 -1.05328e-03
       H  9.49131e-04  1.59202e-04  4.40411e-03
       H -1.14630e-03 -3.83233e-03 -5.30096e-04
       O -6.00796e-04  2.60799e-04 -6.39885e-04
       H  2.82756e-03 -2.93435e-03  5.31058e-03
       H -2.75751e-03  4.93124e-03  1.65927e-03
       O -1.19619e-04  5.40747e-04 -4.14662e-04
       H  2.92371e-03 -7.48984e-04 -6.55518e-03
       H  5.97306e-04  8.79483e-04  4.09058e-03
       O -8.57194e-04 -1.15316e-04  9.67577e-04
       H  3.80469e-03 -2.89108e-03  1.37485e-03
       H -1.61772e-03  3.68330e-03 -3.98447e-03
       O -1.13708e-03 -1.50559e-03 -4.05644e-05
       H -6.42813e-03  3.13439e-03 -3.52356e-04
       H -5.51132e-03 -1.01506e-03 -1.01278e-03
       O  8.80893e-05  8.92672e-04 -9.16136e-06
       H -6.73605e-03  1.96611e-03 -3.59520e-04
       H  2.24339e-03  6.25860e-04  1.94670e-03
       O  1.28418e-04 -9.58166e-04  1.34512e-03
       H  3.85988e-03 -1.14004e-03 -1.90790e-03
       H  1.30385e-03  4.90703e-04 -2.76230e-03
       O -5.35256e-04  2.30034e-03  1.38864e-03
       H -1.47779e-03 -3.83536e-03  4.58983e-03
       H  8.86457e-04 -3.83545e-03 -1.43869e-03
       O  1.77718e-03 -1.33329e-04 -1.30774e-03
       H -1.62592e-03 -8.06154e-04 -7.96284e-04
       H -2.29469e-03 -2.04092e-03  3.89632e-03
       O  5.60539e-04 -2.74791e-04 -6.36013e-04
       H  1.07889e-03 -8.51516e-03 -2.28093e-03
       H  1.33702e-03 -3.41260e-03 -7.76639e-03
       O -1.13485e-03  1.40703e-05  1.17670e-03
       H -5.61751e-03  5.64911e-03 -1.58503e-03
       H  3.99242e-03 -1.81931e-04  1.11386e-03
       O  7.40601e-04 -3.11386e-04  9.81926e-04
       H -2.69072e-03 -5.73434e-03 -3.18275e-03
       H -5.18267e-03 -4.59309e-05  2.41992e-03
       O -2.97632e-04 -2.27538e-04 -1.19230e-03
       H  6.49967e-05  1.94608e-04 -2.80847e-04
       H -3.85079e-03  5.77279e-03  2.09437e-03
       O  6.56266e-04  9.64420e-04  1.93509e-03
       H -3.50242e-03 -3.51621e-04 -1.44460e-03
       H -5.58548e-03  9.90538e-04 -2.22826e-03
       O -1.16343e-03 -7.30073e-04 -1.43373e-03
       H  8.91468e-04  8.60612e-03 -1.79915e-03
       H  2.44911e-03  3.96606e-03 -2.63687e-03
       O -9.34674e-04  1.06881e-03  8.10240e-04
       H  1.12941e-03 -1.03957e-04 -6.19424e-04
       H  2.28967e-03 -3.23802e-03 -8.73817e-04
       O  3.56183e-05 -1.28883e-04 -7.10165e-04
       H -1.76113e-03 -6.20721e-03 -5.18852e-04
       H  8.58603e-04 -4.84192e-03  6.70787e-03
       O -5.04092e-04  6.58849e-05  2.24990e-04
       H -9.26308e-04 -3.90797e-03  7.97132e-04
       H  4.20502e-03  1.08312e-03  7.32920e-04
       O  1.29301e-04 -1.19263e-03 -1.51265e-03
       H -5.48296e-04 -6.04204e-04 -5.78602e-03
       H -4.48212e-03 -4.40031e-03 -2.90054e-03
       O  3.44959e-05  1.43311e-04  6.08552e-05
       H  3.50373e-03 -2.82586e-03 -3.30600e-03
       H  5.95182e-03 -2.14116e-03 -2.25333e-03
       O -3.14749e-04 -4.88991e-04 -1.52560e-03
       H -2.31921e-03  9.77244e-04 -5.16462e-03
       H -5.02111e-04  4.29981e-04  1.10225e-03
       O  7.01969e-06  9.94087e-05 -1.24595e-03
       H  1.10907e-03 -3.02294e-03  4.00666e-03
       H -7.13040e-03  4.01964e-03  2.69208e-04
       O  2.89663e-04 -8.10521e-04 -1.65133e-03
       H -3.65626e-03  3.62308e-03 -1.37775e-03
       H -5.58202e-03  4.04939e-03  3.60839e-03
       O  8.41246e-04  2.10850e-05  4.06475e-04
       H -4.33373e-03  5.59539e-03  2.55559e-03
       H  5.38484e-03  2.52207e-03  6.87873e-03
       O  1.86302e-03  1.25615e-04  2.89323e-04
       H -1.29415e-03  2.48653e-03  5.89949e-03
       H  4.33130e-04  1.83769e-03  3.71483e-03
       O  1.14511e-03  3.72067e-05 -1.45290e-03
       H -5.28459e-03 -5.81043e-03 -4.24798e-03
       H  7.99388e-04 -7.88767e-04 -1.34542e-03
       O  7.69067e-04 -1.68706e-04  1.18272e-03
       H  1.44801e-03  4.15332e-03 -3.52126e-03
       H  5.65874e-03  8.63178e-04  2.26260e-03
       O -3.88576e-04  3.38750e-04  2.09726e-03
       H  3.56184e-03 -4.97561e-03 -1.72858e-03
       H -6.65431e-03  2.47918e-03 -1.74983e-03
       O -5.72348e-04 -4.27647e-04  2.08674e-03
       H -1.77639e-03  2.54738e-03 -6.94714e-04
       H  2.45211e-03 -1.23617e-03  9.03272e-04
       O  5.59885e-04 -4.29236e-04 -1.37419e-03
       H -2.06593e-03 -4.79679e-03 -5.03258e-04
       H  4.32796e-04 -7.22711e-03 -7.97147e-03
       O -5.50666e-04 -5.12567e-05 -5.94075e-05
       H  6.04194e-03 -1.45150e-03 -7.14427e-03
       H  1.23344e-02  3.12035e-03  3.16818e-03
       O  3.01473e-04  4.23955e-04 -2.33806e-04
       H -3.57294e-03 -2.89962e-03  1.52119e-03
       H  8.53203e-04 -3.19835e-04 -6.10130e-03
       O  4.14469e-04  1.04069e-03 -1.49798e-03
       H  3.93284e-04 -1.86784e-03 -4.93078e-03
       H  1.08341e-03  3.98849e-03  4.62184e-03
       O  5.37979e-05  1.31060e-03 -3.13428e-04
       H -3.60353e-03 -1.56624e-03  3.21081e-03
       H  1.95094e-03 -1.39888e-03  3.57769e-04
       O -2.64787e-04  2.78451e-04  5.09336e-04
       H -2.13207e-03 -4.26668e-03 -1.13165e-02
       H  3.79624e-04  2.11736e-03 -2.73103e-03
       O  4.04882e-04  8.41250e-04  8.53539e-04
       H  7.91817e-04  6.50567e-04  8.36627e-04
       H  3.39345e-03  4.34438e-03 -2.04247e-03
       O  1.27354e-03 -3.76573e-04  3.26437e-04
       H -3.95659e-04  2.98992e-04 -2.18627e-03
       H -1.69222e-04 -1.10724e-03  4.95303e-03
       O -4.70534e-04 -4.36328e-04 -1.81252e-04
       H -3.66122e-03 -6.52697e-03 -1.17605e-03
       H  4.73238e-03  6.17446e-03 -1.25225e-03
       O -9.53445e-04  1.58790e-05 -1.14153e-03
       H  1.16477e-03 -1.30790e-03  1.89260e-04
       H  5.64424e-03  3.44272e-03  3.79769e-03
       O -1.11062e-03 -4.86141e-04 -1.30963e-03
       H  1.35127e-03  4.54434e-03  1.99356e-03
       H  1.88571e-03  3.76423e-03 -2.93545e-03
       O  5.05470e-04 -1.76960e-03 -3.15690e-04
       H -1.69797e-04 -4.46897e-04  4.02726e-04
       H -9.64484e-04  9.12437e-03  1.83342e-03
       O -9.66561e-04 -1.40349e-03 -1.50626e-04
       H -9.58801e-04 -3.88121e-03  2.43042e-03
       H  4.40016e-03  4.11749e-03 -5.72643e-03
       O -2.07669e-03  1.10158e-03  2.07860e-04
       H  6.74615e-03  1.50981e-03  8.36273e-04
       H  4.82161e-03 -3.55396e-03  3.52455e-03
       O  1.36170e-03 -9.64919e-04 -2.89461e-04
       H  6.69837e-04  1.33990e-03  1.70207e-03
       H -2.89008e-03  2.55230e-03 -2.11065e-03
       O -1.47066e-05 -1.23361e-04  9.85378e-06
       H -1.81384e-03 -5.96864e-03  2.40802e-03
       H -8.66509e-03  5.49137e-04  2.18701e-03
       O -1.00439e-03  8.65449e-04 -9.32085e-05
       H -1.97977e-03  1.17898e-03 -2.98523e-03
       H -1.96878e-03 -4.79310e-03  4.55440e-04
       O  1.22774e-03 -2.04800e-04 -4.82478e-04
       H -2.90306e-03  1.75735e-03  8.92630e-04
       H  2.19782e-03  1.65459e-03 -6.19432e-03
       O  8.28131e-05 -2.10334e-04  4.25971e-04
       H  5.89622e-03 -2.06557e-03 -1.05771e-03
       H  2.46360e-03 -1.78060e-03  1.31156e-03
       O -4.56789e-04 -2.39010e-03 -2.28451e-03
       H -2.28981e-03  1.49607e-03 -1.69981e-03
       H -5.58076e-03  7.02249e-05 -1.71706e-03
       O  2.36820e-04  1.03010e-03 -7.57014e-04
       H  5.62146e-04  1.47916e-03  3.73312e-04
       H -6.57174e-03 -3.16358e-03 -1.00278e-03
       O -5.53558e-04  4.80690e-04  3.36624e-04
       H  2.05226e-03 -5.30358e-03 -5.81982e-03
       H  7.64060e-04  2.03803e-03 -4.99455e-03
       O  1.52505e-03  8.53465e-04 -6.87191e-04
       H  1.08402e-03  3.55613e-03 -6.89546e-05
       H -3.46001e-03  1.04203e-03  2.59377e-03
       O -5.13501e-05  3.45848e-04  1.26641e-03
       H -5.25718e-04  5.70830e-03  3.18786e-03
       H  5.88919e-04 -1.01428e-02 -4.96513e-03
       O  4.75864e-04 -4.99506e-04  2.38951e-03
       H -6.28041e-03  5.85887e-03 -4.11647e-03
       H -2.77779e-03 -1.51649e-03 -4.69134e-03
       O -2.79917e-04  9.86545e-04  4.21923e-04
       H  2.50095e-03 -2.18429e-03 -7.62909e-04
       H -4.89967e-03  5.83657e-03  3.31041e-03
192
# CELL(abcABC):   16.99620    29.43815    27.67315    90.00000    90.00000    90.00000  Step:          30  Bead:       3 velocities{atomic_unit}  cell{atomic_unit}
       O  1.61102e-03 -4.49931e-04 -7.86142e-04
       H  3.00495e-04 -1.89713e-03 -2.89680e-04
       H -3.95435e-03 -4.90261e-04  6.04344e-04
       O  1.83566e-04 -3.31016e-04  1.25518e-03
       H -4.33981e-05 -3.62362e-04  4.44269e-03
       H -6.63336e-03  7.82759e-05  2.24050e-03
       O  1.04695e-03 -5.03729e-04 -1.85080e-04
       H  1.22529e-03 -7.46364e-03  3.30667e-03
       H -1.36616e-03 -5.58968e-04  5.60029e-03
       O -8.88683e-04  8.66491e-04 -9.34486e-04
       H  3.28277e-03 -9.97587e-04 -2.30913e-03
       H  1.72849e-04  1.81548e-04  2.44476e-03
       O -7.58778e-04 -1.03493e-03 -1.21580e-03
       H -1.18764e-03  2.57516e-03 -2.93612e-03
       H -2.61974e-03 -2.37164e-03 -4.61711e-03
       O  1.33010e-03 -5.21882e-04  3.24798e-04
       H  3.03713e-03 -9.79836e-04 -3.55003e-03
       H  6.06726e-03  1.81712e-03 -8.45043e-03
       O -2.14912e-03 -8.60667e-04  1.09368e-03
       H  3.82058e-03  4.55246e-03 -3.97610e-03
       H  2.17621e-03  1.69799e-03  5.42592e-04
       O -1.82447e-03  9.45608e-04  2.25582e-04
       H  2.92758e-03 -2.01084e-03  1.92324e-03
       H  5.80643e-03 -2.83002e-03 -2.07112e-03
       O -1.30512e-03 -4.63849e-04 -8.80417e-04
       H  3.09741e-03  2.22962e-03  3.56703e-03
       H  5.07431e-03  4.50052e-03 -4.72723e-03
       O  1.81715e-04  1.66676e-03 -1.95766e-04
       H  1.33894e-03  3.82138e-03  5.73588e-03
       H  4.95750e-03  7.50136e-03 -1.61236e-03
       O -1.15187e-03  1.31422e-04 -1.44999e-03
       H -7.74254e-04 -2.63771e-03 -3.56085e-03
       H -7.10305e-04 -3.48671e-03  5.96116e-03
       O  9.15859e-06 -1.24593e-03 -6.11933e-05
       H -1.64734e-03  1.32731e-03 -1.11600e-03