192
# CELL(abcABC):   16.99620    29.43815    27.67315    90.00000    90.00000    90.00000  Step:           0  Bead:       4 positions{atomic_unit}  cell{atomic_unit}
       O -8.22215e+00 -9.94239e+00 -1.31733e+01
       H  7.30664e+00 -1.09711e+01 -1.36322e+01
       H -6.70615e+00 -1.09482e+01 -1.35006e+01
       O -3.97298e+00 -2.58228e+00 -1.31734e+01
       H -5.44033e+00 -3.61131e+00 -1.36317e+01
       H -2.45697e+00 -3.58820e+00 -1.35005e+01
       O -3.95756e+00 -1.25543e+01 -7.82386e-01
       H -3.95604e+00 -1.43515e+01 -2.29143e-01
       H -4.14759e+00 -1.25671e+01 -2.59983e+00
       O -8.20667e+00 -5.19495e+00 -7.82227e-01
       H -8.20527e+00 -6.99211e+00 -2.28860e-01
       H -8.39642e+00 -5.20788e+00 -2.59970e+00
       O -4.52495e+00 -1.21366e+01 -6.25523e+00
       H -6.04104e+00 -1.11308e+01 -6.58223e+00
       H -3.05766e+00 -1.11077e+01 -6.71383e+00
       O  8.22247e+00 -4.77716e+00 -6.25561e+00
       H  6.70639e+00 -3.77128e+00 -6.58235e+00
       H -7.30644e+00 -3.74813e+00 -6.71411e+00
       O  8.20650e+00 -9.52435e+00 -7.70064e+00
       H  8.39647e+00 -9.51190e+00 -9.51809e+00
       H  8.20529e+00 -7.72704e+00 -7.14768e+00
       O -4.54027e+00 -2.16431e+00 -7.70075e+00
       H -4.35006e+00 -2.15153e+00 -9.51816e+00
       H -4.54166e+00 -3.67089e-01 -7.14744e+00
       O -8.22211e+00 -9.94193e+00  6.63469e-01
       H  7.30672e+00 -1.09707e+01  2.04633e-01
       H -6.70609e+00 -1.09478e+01  3.36365e-01
       O -3.97290e+00 -2.58257e+00  6.63081e-01
       H -5.44032e+00 -3.61148e+00  2.04655e-01
       H -2.45688e+00 -3.58848e+00  3.35971e-01
       O -3.95760e+00 -1.25545e+01  1.30538e+01
       H -3.95614e+00 -1.43517e+01  1.36071e+01
       H -4.14757e+00 -1.25673e+01  1.12363e+01
       O -8.20656e+00 -5.19529e+00  1.30545e+01
       H -8.20517e+00 -6.99250e+00  1.36078e+01
       H -8.39634e+00 -5.20824e+00  1.12370e+01
       O -4.52490e+00 -1.21367e+01  7.58138e+00
       H -6.04102e+00 -1.11309e+01  7.25435e+00
       H -3.05757e+00 -1.11078e+01  7.12272e+00
       O  8.22232e+00 -4.77760e+00  7.58065e+00
       H  6.70627e+00 -3.77169e+00  7.25392e+00
       H -7.30657e+00 -3.74862e+00  7.12211e+00
       O  8.20656e+00 -9.52478e+00  6.13597e+00
       H  8.39651e+00 -9.51229e+00  4.31849e+00
       H  8.20527e+00 -7.72747e+00  6.68889e+00
       O -4.54025e+00 -2.16471e+00  6.13560e+00
       H -4.34999e+00 -2.15183e+00  4.31818e+00
       H -4.54168e+00 -3.67533e-01  6.68897e+00
       O -8.22212e+00  4.77724e+00 -1.31733e+01
       H  7.30671e+00  3.74833e+00 -1.36320e+01
       H -6.70607e+00  3.77135e+00 -1.35002e+01
       O -3.97288e+00  1.21369e+01 -1.31734e+01
       H -5.44030e+00  1.11079e+01 -1.36317e+01
       H -2.45689e+00  1.11310e+01 -1.35006e+01
       O -3.95757e+00  2.16435e+00 -7.82368e-01
       H -3.95607e+00  3.67109e-01 -2.29207e-01
       H -4.14756e+00  2.15166e+00 -2.59983e+00
       O -8.20667e+00  9.52420e+00 -7.81868e-01
       H -8.20527e+00  7.72699e+00 -2.28645e-01
       H -8.39652e+00  9.51128e+00 -2.59932e+00
       O -4.52494e+00  2.58246e+00 -6.25501e+00
       H -6.04100e+00  3.58821e+00 -6.58223e+00
       H -3.05758e+00  3.61139e+00 -6.71360e+00
       O  8.22236e+00  9.94146e+00 -6.25587e+00
       H  6.70631e+00  1.09474e+01 -6.58279e+00
       H -7.30653e+00  1.09705e+01 -6.71435e+00
       O  8.20665e+00  5.19438e+00 -7.70097e+00
       H  8.39659e+00  5.20693e+00 -9.51844e+00
       H  8.20533e+00  6.99167e+00 -7.14797e+00
       O -4.54026e+00  1.25545e+01 -7.70081e+00
       H -4.34992e+00  1.25674e+01 -9.51823e+00
       H -4.54169e+00  1.43517e+01 -7.14749e+00
       O -8.22210e+00  4.77691e+00  6.62996e-01
       H  7.30665e+00  3.74808e+00  2.04431e-01
       H -6.70613e+00  3.77091e+00  3.36028e-01
       O -3.97279e+00  1.21369e+01  6.63306e-01
       H -5.44019e+00  1.11079e+01  2.05006e-01
       H -2.45681e+00  1.11309e+01  3.36133e-01
       O -3.95757e+00  2.16479e+00  1.30545e+01
       H -3.95616e+00  3.67575e-01  1.36077e+01
       H -4.14769e+00  2.15200e+00  1.12370e+01
       O -8.20659e+00  9.52434e+00  1.30546e+01
       H -8.20522e+00  7.72713e+00  1.36079e+01
       H -8.39644e+00  9.51145e+00  1.12371e+01
       O -4.52499e+00  2.58228e+00  7.58148e+00
       H -6.04100e+00  3.58814e+00  7.25437e+00
       H -3.05766e+00  3.61126e+00  7.12297e+00
       O  8.22229e+00  9.94203e+00  7.58108e+00
       H  6.70627e+00  1.09480e+01  7.25419e+00
       H -7.30655e+00  1.09710e+01  7.12260e+00
       O  8.20668e+00  5.19493e+00  6.13567e+00
       H  8.39670e+00  5.20749e+00  4.31823e+00
       H  8.20535e+00  6.99219e+00  6.68874e+00
       O -4.54018e+00  1.25546e+01  6.13603e+00
       H -4.34989e+00  1.25674e+01  4.31861e+00
       H -4.54161e+00  1.43518e+01  6.68925e+00
       O  2.75877e-01 -9.94198e+00 -1.31737e+01
       H -1.19147e+00 -1.09709e+01 -1.36323e+01
       H  1.79191e+00 -1.09478e+01 -1.35009e+01
       O  4.52479e+00 -2.58220e+00 -1.31736e+01
       H  3.05750e+00 -3.61120e+00 -1.36322e+01
       H  6.04084e+00 -3.58815e+00 -1.35003e+01
       O  4.54038e+00 -1.25538e+01 -7.82378e-01
       H  4.54166e+00 -1.43510e+01 -2.29173e-01
       H  4.35042e+00 -1.25666e+01 -2.59983e+00
       O  2.91382e-01 -5.19489e+00 -7.82498e-01
       H  2.92775e-01 -6.99208e+00 -2.29179e-01
       H  1.01240e-01 -5.20770e+00 -2.59994e+00
       O  3.97307e+00 -1.21369e+01 -6.25482e+00
       H  2.45707e+00 -1.11310e+01 -6.58187e+00
       H  5.44043e+00 -1.11080e+01 -6.71350e+00
       O -2.76167e-01 -4.77714e+00 -6.25484e+00
       H -1.79215e+00 -3.77120e+00 -6.58193e+00
       H  1.19122e+00 -3.74822e+00 -6.71327e+00
       O -2.91294e-01 -9.52406e+00 -7.70061e+00
       H -1.01153e-01 -9.51128e+00 -9.51804e+00
       H -2.92737e-01 -7.72684e+00 -7.14734e+00
       O  3.95740e+00 -2.16468e+00 -7.70029e+00
       H  4.14711e+00 -2.15178e+00 -9.51779e+00
       H  3.95613e+00 -3.67477e-01 -7.14700e+00
       O  2.75838e-01 -9.94166e+00  6.63265e-01
       H -1.19143e+00 -1.09706e+01  2.04532e-01
       H  1.79197e+00 -1.09474e+01  3.36068e-01
       O  4.52471e+00 -2.58218e+00  6.62891e-01
       H  3.05743e+00 -3.61117e+00  2.04240e-01
       H  6.04080e+00 -3.58806e+00  3.36089e-01
       O  4.54037e+00 -1.25543e+01  1.30539e+01
       H  4.54173e+00 -1.43516e+01  1.36070e+01
       H  4.35050e+00 -1.25670e+01  1.12364e+01
       O  2.91297e-01 -5.19502e+00  1.30541e+01
       H  2.92732e-01 -6.99225e+00  1.36074e+01
       H  1.01206e-01 -5.20786e+00  1.12367e+01
       O  3.97310e+00 -1.21368e+01  7.58177e+00
       H  2.45707e+00 -1.11309e+01  7.25464e+00
       H  5.44051e+00 -1.11080e+01  7.12302e+00
       O -2.76100e-01 -4.77767e+00  7.58136e+00
       H -1.79210e+00 -3.77177e+00  7.25428e+00
       H  1.19125e+00 -3.74871e+00  7.12290e+00
       O -2.91340e-01 -9.52458e+00  6.13593e+00
       H -1.01282e-01 -9.51181e+00  4.31852e+00
       H -2.92762e-01 -7.72734e+00  6.68916e+00
       O  3.95728e+00 -2.16475e+00  6.13602e+00
       H  4.14704e+00 -2.15175e+00  4.31853e+00
       H  3.95603e+00 -3.67615e-01  6.68942e+00
       O  2.75872e-01  4.77775e+00 -1.31735e+01
       H -1.19145e+00  3.74868e+00 -1.36320e+01
       H  1.79192e+00  3.77189e+00 -1.35005e+01
       O  4.52473e+00  1.21369e+01 -1.31737e+01
       H  3.05744e+00  1.11080e+01 -1.36325e+01
       H  6.04082e+00  1.11311e+01 -1.35004e+01
       O  4.54033e+00  2.16480e+00 -7.82502e-01
       H  4.54166e+00  3.67553e-01 -2.29384e-01
       H  4.35052e+00  2.15214e+00 -2.60000e+00
       O  2.91442e-01  9.52423e+00 -7.82681e-01
       H  2.92837e-01  7.72701e+00 -2.29452e-01
       H  1.01299e-01  9.51146e+00 -2.60013e+00
       O  3.97319e+00  2.58230e+00 -6.25496e+00
       H  2.45717e+00  3.58819e+00 -6.58198e+00
       H  5.44056e+00  3.61109e+00 -6.71379e+00
       O -2.76125e-01  9.94167e+00 -6.25515e+00
       H -1.79212e+00  1.09476e+01 -6.58222e+00
       H  1.19126e+00  1.09706e+01 -6.71377e+00
       O -2.91369e-01  5.19475e+00 -7.70046e+00
       H -1.01380e-01  5.20765e+00 -9.51793e+00
       H -2.92793e-01  6.99195e+00 -7.14718e+00
       O  3.95737e+00  1.25543e+01 -7.70076e+00
       H  4.14703e+00  1.25673e+01 -9.51824e+00
       H  3.95606e+00  1.43514e+01 -7.14726e+00
       O  2.75794e-01  4.77734e+00  6.62959e-01
       H -1.19152e+00  3.74832e+00  2.04499e-01
       H  1.79186e+00  3.77147e+00  3.35887e-01
       O  4.52464e+00  1.21373e+01  6.62988e-01
       H  3.05745e+00  1.11082e+01  2.04218e-01
       H  6.04076e+00  1.11314e+01  3.36450e-01
       O  4.54041e+00  2.16499e+00  1.30543e+01
       H  4.54178e+00  3.67749e-01  1.36074e+01
       H  4.35054e+00  2.15228e+00  1.12368e+01
       O  2.91308e-01  9.52457e+00  1.30538e+01
       H  2.92715e-01  7.72735e+00  1.36071e+01
       H  1.01225e-01  9.51181e+00  1.12363e+01
       O  3.97315e+00  2.58235e+00  7.58152e+00
       H  2.45713e+00  3.58829e+00  7.25455e+00
       H  5.44048e+00  3.61122e+00  7.12279e+00
       O -2.76008e-01  9.94202e+00  7.58171e+00
       H -1.79205e+00  1.09479e+01  7.25468e+00
       H  1.19134e+00  1.09710e+01  7.12317e+00
       O -2.91416e-01  5.19510e+00  6.13606e+00
       H -1.01371e-01  5.20795e+00  4.31863e+00
       H -2.92777e-01  6.99228e+00  6.68938e+00
       O  3.95729e+00  1.25546e+01  6.13612e+00
       H  4.14688e+00  1.25676e+01  4.31864e+00
       H  3.95603e+00  1.43518e+01  6.68952e+00
192
# CELL(abcABC):   16.99620    29.43815    27.67315    90.00000    90.00000    90.00000  Step:          10  Bead:       4 positions{atomic_unit}  cell{atomic_unit}
       O -8.22546e+00 -9.98346e+00 -1.31709e+01
       H  7.23857e+00 -1.10434e+01 -1.36378e+01
       H -6.47554e+00 -1.10922e+01 -1.36331e+01
       O -3.93544e+00 -2.55251e+00 -1.31594e+01
       H -5.61462e+00 -3.84755e+00 -1.37163e+01
       H -2.37878e+00 -3.69567e+00 -1.37070e+01
       O -3.94993e+00 -1.25646e+01 -8.00041e-01
       H -4.16546e+00 -1.42424e+01 -4.87558e-01
       H -3.87227e+00 -1.26281e+01 -2.66343e+00
       O -8.22279e+00 -5.14377e+00 -7.47731e-01
       H -8.13097e+00 -6.98239e+00 -2.89076e-01
       H -8.84210e+00 -5.25260e+00 -2.55753e+00
       O -4.54325e+00 -1.20808e+01 -6.22225e+00
       H -6.25520e+00 -1.12700e+01 -6.64898e+00
       H -2.91471e+00 -1.11097e+01 -6.72806e+00
       O  8.18442e+00 -4.68606e+00 -6.24617e+00
       H  6.64968e+00 -3.71018e+00 -6.75088e+00
       H -7.52748e+00 -3.63143e+00 -6.90142e+00
       O  8.17889e+00 -9.52578e+00 -7.72243e+00
       H  8.45790e+00 -9.29760e+00 -9.42391e+00
       H  8.42643e+00 -7.60602e+00 -7.20852e+00
       O -4.52382e+00 -2.18268e+00 -7.72368e+00
       H -4.33780e+00 -2.12668e+00 -9.55974e+00
       H -4.70508e+00 -4.63669e-01 -7.27890e+00
       O -8.28158e+00 -9.94347e+00  6.41620e-01
       H  7.03861e+00 -1.07833e+01  3.06537e-01
       H -6.82003e+00 -1.11491e+01  3.27656e-01
       O -3.92532e+00 -2.58904e+00  6.81765e-01
       H -5.28199e+00 -3.77330e+00  3.25330e-01
       H -2.37841e+00 -3.67709e+00  8.89949e-02
       O -3.91561e+00 -1.25550e+01  1.30930e+01
       H -4.25406e+00 -1.43605e+01  1.35998e+01
       H -4.00996e+00 -1.28000e+01  1.12722e+01
       O -8.19900e+00 -5.19174e+00  1.30720e+01
       H -8.15540e+00 -6.99302e+00  1.36682e+01
       H -8.00425e+00 -5.35172e+00  1.12094e+01
       O -4.46409e+00 -1.21136e+01  7.58040e+00
       H -5.91809e+00 -1.08087e+01  7.09982e+00
       H -3.00135e+00 -1.09705e+01  7.37152e+00
       O  8.26327e+00 -4.80639e+00  7.52506e+00
       H  7.02294e+00 -3.63956e+00  7.41936e+00
       H -7.29628e+00 -3.73569e+00  7.32601e+00
       O  8.14860e+00 -9.53519e+00  6.14330e+00
       H  8.47812e+00 -9.33266e+00  4.37813e+00
       H  8.20795e+00 -7.87766e+00  6.96703e+00
       O -4.52556e+00 -2.12255e+00  6.09583e+00
       H -4.44329e+00 -1.97402e+00  4.64153e+00
       H -4.36722e+00 -4.03674e-01  6.93181e+00
       O -8.19365e+00  4.70909e+00 -1.32337e+01
       H  7.32735e+00  3.70355e+00 -1.36136e+01
       H -6.70946e+00  3.95586e+00 -1.34348e+01
       O -4.01066e+00  1.22103e+01 -1.31683e+01
       H -5.37788e+00  1.11078e+01 -1.36708e+01
       H -2.55153e+00  1.12006e+01 -1.36246e+01
       O -3.91540e+00  2.13515e+00 -8.73759e-01
       H -4.18921e+00  2.94770e-01 -5.53913e-01
       H -4.11642e+00  2.30661e+00 -2.71863e+00
       O -8.17944e+00  9.53434e+00 -8.02562e-01
       H -7.94028e+00  7.65773e+00 -1.72588e-01
       H -8.47320e+00  9.54027e+00 -2.68042e+00
       O -4.48783e+00  2.57995e+00 -6.25575e+00
       H -5.84840e+00  3.51633e+00 -6.50755e+00
       H -3.07344e+00  3.61264e+00 -6.99244e+00
       O  8.21694e+00  1.00003e+01 -6.25626e+00
       H  6.54568e+00  1.07700e+01 -6.53851e+00
       H -7.38776e+00  1.09514e+01 -6.75003e+00
       O  8.18051e+00  5.21405e+00 -7.70137e+00
       H  8.21176e+00  5.27813e+00 -9.43346e+00
       H  8.17782e+00  7.20018e+00 -7.06683e+00
       O -4.54121e+00  1.25314e+01 -7.71334e+00
       H -4.54936e+00  1.25564e+01 -9.44951e+00
       H -4.51183e+00  1.45936e+01 -7.21134e+00
       O -8.30074e+00  4.75980e+00  7.05026e-01
       H  7.22634e+00  3.62447e+00  2.43057e-01
       H -6.83989e+00  3.78893e+00  4.04059e-01
       O -3.98663e+00  1.21183e+01  6.15017e-01
       H -5.40138e+00  1.09784e+01  3.22392e-01
       H -2.40836e+00  1.11338e+01  3.90398e-01
       O -4.02012e+00  2.14509e+00  1.30583e+01
       H -4.04820e+00  3.79897e-01  1.36222e+01
       H -4.37171e+00  2.40761e+00  1.11574e+01
       O -8.20570e+00  9.51400e+00  1.30852e+01
       H -8.17323e+00  7.70727e+00  1.36210e+01
       H -8.41729e+00  9.55387e+00  1.10359e+01
       O -4.52089e+00  2.57950e+00  7.64800e+00
       H -5.94757e+00  3.44774e+00  7.41990e+00
       H -3.12795e+00  3.56930e+00  7.19105e+00
       O  8.20580e+00  9.95130e+00  7.56963e+00
       H  6.76120e+00  1.09926e+01  7.30419e+00
       H -7.30744e+00  1.10746e+01  7.02316e+00
       O  8.16093e+00  5.24377e+00  6.19150e+00
       H  8.61647e+00  5.34940e+00  4.40565e+00
       H  8.19180e+00  7.08041e+00  6.78888e+00
       O -4.51877e+00  1.25795e+01  6.12186e+00
       H -4.42503e+00  1.22671e+01  4.27838e+00
       H -4.26521e+00  1.41880e+01  6.88433e+00
       O  2.93983e-01 -9.90803e+00 -1.32100e+01
       H -1.12173e+00 -1.10093e+01 -1.34355e+01
       H  1.85392e+00 -1.11138e+01 -1.33615e+01
       O  4.54739e+00 -2.56331e+00 -1.31227e+01
       H  2.93741e+00 -3.80896e+00 -1.34954e+01
       H  6.03581e+00 -3.68991e+00 -1.35297e+01
       O  4.61740e+00 -1.25976e+01 -7.43518e-01
       H  4.63770e+00 -1.44498e+01 -9.55191e-02
       H  4.33031e+00 -1.25510e+01 -2.55496e+00
       O  2.74270e-01 -5.26392e+00 -7.87233e-01
       H  1.96026e-01 -7.14493e+00 -1.75020e-02
       H  1.44588e-01 -4.98500e+00 -2.48178e+00
       O  3.93947e+00 -1.21082e+01 -6.27374e+00
       H  2.39822e+00 -1.09286e+01 -6.33275e+00
       H  5.46806e+00 -1.13568e+01 -6.99553e+00
       O -3.10567e-01 -4.78572e+00 -6.27862e+00
       H -1.94930e+00 -3.86624e+00 -6.79030e+00
       H  1.15218e+00 -3.86825e+00 -6.83648e+00
       O -2.91449e-01 -9.56221e+00 -7.66233e+00
       H  4.59595e-02 -9.54443e+00 -9.48591e+00
       H -2.78963e-01 -7.62565e+00 -7.07115e+00
       O  3.96415e+00 -2.18076e+00 -7.70126e+00
       H  4.35847e+00 -2.66199e+00 -9.29260e+00
       H  4.09018e+00 -3.02842e-01 -7.31795e+00
       O  2.37951e-01 -9.95504e+00  6.63921e-01
       H -9.45885e-01 -1.09738e+01  2.75493e-01
       H  1.78908e+00 -1.08003e+01  4.68418e-01
       O  4.58147e+00 -2.57501e+00  6.22194e-01
       H  2.82154e+00 -3.73449e+00  2.66261e-01
       H  6.23333e+00 -3.49205e+00  2.28309e-01
       O  4.53330e+00 -1.25816e+01  1.30374e+01
       H  4.23512e+00 -1.44381e+01  1.36231e+01
       H  4.12730e+00 -1.23046e+01  1.12867e+01
       O  3.00114e-01 -5.19852e+00  1.31538e+01
       H  1.91145e-01 -7.16468e+00  1.37880e+01
       H  2.52543e-01 -5.24324e+00  1.12614e+01
       O  3.96545e+00 -1.21310e+01  7.51890e+00
       H  2.64938e+00 -1.11231e+01  7.47205e+00
       H  5.17011e+00 -1.11269e+01  7.01719e+00
       O -2.44205e-01 -4.84550e+00  7.54731e+00
       H -1.70583e+00 -3.92733e+00  7.17345e+00
       H  1.15054e+00 -3.71710e+00  7.06198e+00
       O -2.46758e-01 -9.49190e+00  6.10320e+00
       H  1.35940e-01 -9.46202e+00  4.22074e+00
       H -6.04196e-01 -7.69562e+00  6.42571e+00
       O  4.01434e+00 -2.14163e+00  6.09623e+00
       H  4.43437e+00 -2.00227e+00  4.24844e+00
       H  4.00900e+00 -3.79165e-01  6.63252e+00
       O  2.50792e-01  4.70760e+00 -1.31401e+01
       H -1.03503e+00  3.80474e+00 -1.39415e+01
       H  1.60413e+00  3.79881e+00 -1.38366e+01
       O  4.54345e+00  1.21473e+01 -1.32010e+01
       H  3.00196e+00  1.09414e+01 -1.40589e+01
       H  6.18807e+00  1.11601e+01 -1.37696e+01
       O  4.56541e+00  2.18773e+00 -7.60702e-01
       H  4.54520e+00  4.68666e-01 -3.10900e-01
       H  4.29888e+00  2.27057e+00 -2.42343e+00
       O  2.90681e-01  9.45263e+00 -8.10777e-01
       H  3.75679e-01  7.78669e+00 -6.74502e-02
       H  1.86361e-01  9.50706e+00 -2.61794e+00
       O  3.88024e+00  2.64990e+00 -6.21511e+00
       H  2.58748e+00  3.68924e+00 -6.52325e+00
       H  5.43706e+00  3.70413e+00 -6.32104e+00
       O -2.53750e-01  9.93668e+00 -6.27253e+00
       H -1.75865e+00  1.06394e+01 -6.56028e+00
       H  1.27947e+00  1.07687e+01 -6.54403e+00
       O -3.00050e-01  5.20812e+00 -7.67918e+00
       H -4.62682e-03  5.30147e+00 -9.49068e+00
       H -1.63224e-01  7.00426e+00 -7.26240e+00
       O  3.91464e+00  1.25526e+01 -7.76009e+00
       H  4.29911e+00  1.26527e+01 -9.54405e+00
       H  3.79375e+00  1.43891e+01 -7.18419e+00
       O  2.77412e-01  4.77751e+00  7.19743e-01
       H -1.11143e+00  3.64772e+00  1.50601e-01
       H  1.66386e+00  3.52576e+00  4.52819e-01
       O  4.47676e+00  1.21105e+01  6.58170e-01
       H  3.08313e+00  1.12985e+01  2.13857e-01
       H  6.17951e+00  1.12080e+01  3.53772e-01
       O  4.50372e+00  2.22207e+00  1.30585e+01
       H  4.54555e+00  3.32439e-01  1.36528e+01
       H  4.35189e+00  2.29363e+00  1.13349e+01
       O  2.89548e-01  9.46032e+00  1.29672e+01
       H  3.14761e-01  7.60252e+00  1.36186e+01
       H -2.31955e-01  9.28117e+00  1.12102e+01
       O  3.96607e+00  2.60937e+00  7.62107e+00
       H  2.31421e+00  3.08948e+00  7.38251e+00
       H  5.63448e+00  3.60833e+00  7.16905e+00
       O -2.31382e-01  9.93104e+00  7.66069e+00
       H -1.79278e+00  1.09604e+01  7.46147e+00
       H  1.10755e+00  1.10155e+01  7.21054e+00
       O -3.21932e-01  5.18442e+00  6.15448e+00
       H  4.33999e-02  5.25290e+00  4.25194e+00
       H -1.31330e-01  7.12838e+00  6.72643e+00
       O  4.00004e+00  1.25568e+01  6.13444e+00
       H  4.22606e+00  1.28412e+01  4.23701e+00
       H  3.98323e+00  1.42845e+01  6.41886e+00
192
# CELL(abcABC):   16.99620    29.43815    27.67315    90.00000    90.00000    90.00000  Step:          20  Bead:       4 positions{atomic_unit}  cell{atomic_unit}
       O -8.17784e+00 -1.00051e+01 -1.31177e+01
       H  7.30418e+00 -1.08532e+01 -1.36936e+01
       H -6.39333e+00 -1.11736e+01 -1.38131e+01
       O -3.89795e+00 -2.61388e+00 -1.31632e+01
       H -5.57480e+00 -3.80312e+00 -1.39752e+01
       H -2.18750e+00 -3.81101e+00 -1.37992e+01
       O -3.95659e+00 -1.26019e+01 -7.72969e-01
       H -4.04240e+00 -1.42472e+01 -2.98156e-01
       H -4.00622e+00 -1.24836e+01 -2.59667e+00
       O -8.25003e+00 -5.17588e+00 -8.22800e-01
       H -8.27544e+00 -7.03067e+00 -1.12043e-01
       H -8.93201e+00 -5.17331e+00 -2.41624e+00
       O -4.46942e+00 -1.20785e+01 -6.22672e+00
       H -5.98483e+00 -1.12970e+01 -6.65028e+00
       H -2.68277e+00 -1.12028e+01 -6.77480e+00
       O  8.20837e+00 -4.64552e+00 -6.30704e+00
       H  6.86601e+00 -3.49225e+00 -6.78068e+00
       H -7.52487e+00 -3.72511e+00 -6.71406e+00
       O  8.22949e+00 -9.52717e+00 -7.70854e+00
       H  8.19014e+00 -9.25907e+00 -9.38565e+00
       H  7.92017e+00 -7.66209e+00 -7.25745e+00
       O -4.57306e+00 -2.18009e+00 -7.70115e+00
       H -4.36046e+00 -2.24993e+00 -9.38611e+00
       H -4.83792e+00 -2.46392e-01 -7.22620e+00
       O -8.34226e+00 -9.88825e+00  6.37421e-01
       H  6.84299e+00 -1.08841e+01  2.98448e-01
       H -6.91609e+00 -1.10141e+01  1.85100e-01
       O -3.91765e+00 -2.64494e+00  7.43894e-01
       H -5.57695e+00 -3.88898e+00  4.06412e-01
       H -2.57936e+00 -3.93177e+00  5.50419e-01
       O -3.88001e+00 -1.25392e+01  1.30908e+01
       H -4.53359e+00 -1.42306e+01  1.35517e+01
       H -4.04762e+00 -1.29244e+01  1.12882e+01
       O -8.20953e+00 -5.24360e+00  1.30860e+01
       H -8.23143e+00 -7.07779e+00  1.35473e+01
       H -7.97752e+00 -5.18255e+00  1.13507e+01
       O -4.45425e+00 -1.21968e+01  7.59078e+00
       H -6.06498e+00 -1.09332e+01  7.21841e+00
       H -2.90198e+00 -1.09697e+01  7.65508e+00
       O  8.27039e+00 -4.73505e+00  7.46792e+00
       H  6.82391e+00 -3.67154e+00  7.56478e+00
       H -7.25180e+00 -3.81663e+00  7.00511e+00
       O  8.15819e+00 -9.48606e+00  6.10039e+00
       H  8.30044e+00 -9.65123e+00  4.27317e+00
       H  8.08256e+00 -7.85554e+00  7.12744e+00
       O -4.58580e+00 -2.19114e+00  6.20828e+00
       H -4.45337e+00 -2.09848e+00  4.40243e+00
       H -4.31769e+00 -4.19890e-01  7.07176e+00
       O -8.22846e+00  4.72619e+00 -1.32743e+01
       H  7.31028e+00  3.45347e+00 -1.35984e+01
       H -6.78164e+00  3.71298e+00 -1.35672e+01
       O -3.97278e+00  1.22488e+01 -1.31558e+01
       H -5.49054e+00  1.10716e+01 -1.33999e+01
       H -2.50821e+00  1.12589e+01 -1.33214e+01
       O -3.82306e+00  2.12810e+00 -8.61298e-01
       H -4.45468e+00  2.28352e-01 -2.22583e-01
       H -4.21651e+00  1.83487e+00 -2.73115e+00
       O -8.19759e+00  9.54369e+00 -8.00631e-01
       H -8.01231e+00  7.81488e+00 -4.56586e-02
       H -8.61769e+00  9.57365e+00 -2.43994e+00
       O -4.55913e+00  2.55007e+00 -6.20995e+00
       H -5.96730e+00  3.40280e+00 -6.51093e+00
       H -3.25093e+00  3.68358e+00 -7.26764e+00
       O  8.16033e+00  9.96449e+00 -6.21093e+00
       H  6.31977e+00  1.09044e+01 -6.57980e+00
       H -7.58236e+00  1.11637e+01 -6.83409e+00
       O  8.24039e+00  5.25510e+00 -7.66568e+00
       H  8.18875e+00  5.13411e+00 -9.61214e+00
       H  8.19104e+00  7.17658e+00 -7.46663e+00
       O -4.54311e+00  1.25230e+01 -7.68232e+00
       H -4.86037e+00  1.24013e+01 -9.80459e+00
       H -4.47112e+00  1.45809e+01 -7.35371e+00
       O -8.36184e+00  4.75099e+00  6.90188e-01
       H  7.26658e+00  3.86276e+00 -1.19772e-01
       H -6.96649e+00  3.56771e+00  4.69558e-01
       O -3.99040e+00  1.20960e+01  6.31031e-01
       H -5.53166e+00  1.10171e+01  7.25768e-01
       H -2.31819e+00  1.08076e+01  6.87681e-01
       O -4.04056e+00  2.09405e+00  1.29766e+01
       H -3.97972e+00  3.46979e-01  1.36567e+01
       H -4.43007e+00  2.50284e+00  1.11799e+01
       O -8.18255e+00  9.46717e+00  1.30488e+01
       H -8.09737e+00  7.74694e+00  1.33460e+01
       H -8.25174e+00  9.58509e+00  1.11311e+01
       O -4.49066e+00  2.58492e+00  7.53156e+00
       H -6.29437e+00  3.53892e+00  7.54645e+00
       H -3.12291e+00  3.35017e+00  7.19396e+00
       O  8.20896e+00  9.93054e+00  7.51688e+00
       H  6.63261e+00  1.12890e+01  7.24327e+00
       H -7.22337e+00  1.08626e+01  7.22762e+00
       O  8.13266e+00  5.15919e+00  6.08518e+00
       H  8.56045e+00  5.49220e+00  4.40155e+00
       H  8.17797e+00  7.15170e+00  6.73973e+00
       O -4.53505e+00  1.25490e+01  6.14302e+00
       H -4.53031e+00  1.20561e+01  4.24102e+00
       H -4.43552e+00  1.43536e+01  6.56197e+00
       O  3.43934e-01 -9.88289e+00 -1.32654e+01
       H -1.32610e+00 -1.10274e+01 -1.34333e+01
       H  1.86123e+00 -1.10301e+01 -1.33189e+01
       O  4.58047e+00 -2.49723e+00 -1.30904e+01
       H  3.15842e+00 -3.88537e+00 -1.33807e+01
       H  6.18069e+00 -3.81111e+00 -1.35835e+01
       O  4.62365e+00 -1.26094e+01 -7.82682e-01
       H  4.48113e+00 -1.45490e+01 -3.88892e-01
       H  4.37671e+00 -1.26150e+01 -2.68046e+00
       O  2.21525e-01 -5.24355e+00 -7.55044e-01
       H  1.19696e-02 -7.24156e+00 -9.60782e-02
       H  1.59986e-01 -5.17257e+00 -2.55368e+00
       O  3.87039e+00 -1.21332e+01 -6.27140e+00
       H  2.14567e+00 -1.09970e+01 -6.32455e+00
       H  5.36597e+00 -1.14188e+01 -7.15439e+00
       O -3.07420e-01 -4.79773e+00 -6.29840e+00
       H -1.91826e+00 -3.93965e+00 -6.77148e+00
       H  1.29758e+00 -3.86794e+00 -6.83244e+00
       O -3.82100e-01 -9.49643e+00 -7.71171e+00
       H -1.22359e-01 -9.47963e+00 -9.39433e+00
       H -3.80269e-01 -7.76914e+00 -7.39254e+00
       O  3.88759e+00 -2.21433e+00 -7.78345e+00
       H  4.19603e+00 -2.77783e+00 -9.51881e+00
       H  4.39803e+00 -3.09964e-01 -7.41513e+00
       O  2.74943e-01 -9.97160e+00  6.60262e-01
       H -1.03098e+00 -1.12698e+01  3.55225e-02
       H  1.86171e+00 -1.10244e+01  3.19515e-01
       O  4.64629e+00 -2.64081e+00  6.80922e-01
       H  2.91883e+00 -3.81710e+00  4.20135e-01
       H  6.19756e+00 -3.59028e+00  2.93347e-01
       O  4.55604e+00 -1.25307e+01  1.31486e+01
       H  4.44856e+00 -1.42532e+01  1.36717e+01
       H  4.24046e+00 -1.27826e+01  1.13094e+01
       O  3.04094e-01 -5.19408e+00  1.31168e+01
       H -5.67470e-02 -6.95263e+00  1.35211e+01
       H  2.69894e-01 -5.20645e+00  1.10558e+01
       O  3.94753e+00 -1.21063e+01  7.54944e+00
       H  2.65804e+00 -1.08397e+01  7.38987e+00
       H  5.24711e+00 -1.09634e+01  6.99437e+00
       O -2.35624e-01 -4.83435e+00  7.47968e+00
       H -1.82697e+00 -3.82205e+00  7.16636e+00
       H  1.29423e+00 -3.47999e+00  7.21187e+00
       O -2.83176e-01 -9.52305e+00  6.09819e+00
       H -2.55888e-01 -9.73037e+00  4.30816e+00
       H -2.10441e-01 -7.66470e+00  6.69679e+00
       O  4.03625e+00 -2.11690e+00  6.06838e+00
       H  4.41889e+00 -1.88457e+00  4.42586e+00
       H  4.13675e+00 -2.73770e-01  6.68557e+00
       O  1.79436e-01  4.75755e+00 -1.31024e+01
       H -1.34266e+00  4.04223e+00 -1.39522e+01
       H  1.61713e+00  3.64864e+00 -1.37307e+01
       O  4.52777e+00  1.21245e+01 -1.32400e+01
       H  3.25657e+00  1.09611e+01 -1.40224e+01
       H  5.89252e+00  1.13073e+01 -1.38086e+01
       O  4.57499e+00  2.16357e+00 -6.79622e-01
       H  4.66755e+00  3.62096e-01 -3.47593e-01
       H  4.19653e+00  2.26475e+00 -2.75176e+00
       O  2.43091e-01  9.43720e+00 -8.26880e-01
       H  4.50627e-01  7.67624e+00 -1.24348e-01
       H  1.32687e-01  9.66317e+00 -2.44262e+00
       O  3.90579e+00  2.57664e+00 -6.16334e+00
       H  2.53232e+00  3.60646e+00 -6.46566e+00
       H  5.40217e+00  3.79357e+00 -6.39420e+00
       O -2.26934e-01  9.91567e+00 -6.37350e+00
       H -1.96338e+00  1.06456e+01 -6.61517e+00
       H  1.33546e+00  1.08764e+01 -6.68703e+00
       O -3.65214e-01  5.19344e+00 -7.68837e+00
       H -1.17812e-01  5.49646e+00 -9.44235e+00
       H -3.26032e-01  7.20643e+00 -6.86486e+00
       O  3.98226e+00  1.26263e+01 -7.70571e+00
       H  4.22548e+00  1.24373e+01 -9.59461e+00
       H  4.14936e+00  1.42928e+01 -7.05099e+00
       O  2.38474e-01  4.74752e+00  6.02034e-01
       H -1.13664e+00  3.49579e+00  1.61955e-01
       H  1.89900e+00  3.60811e+00  4.08215e-01
       O  4.46164e+00  1.20758e+01  7.57829e-01
       H  2.91956e+00  1.10821e+01  3.34017e-01
       H  6.19018e+00  1.12943e+01  2.86203e-01
       O  4.54932e+00  2.32895e+00  1.30505e+01
       H  4.36718e+00  4.31234e-01  1.39209e+01
       H  4.37605e+00  2.09867e+00  1.11756e+01
       O  2.77730e-01  9.47776e+00  1.29296e+01
       H  3.33563e-01  7.63937e+00  1.35593e+01
       H -1.68319e-01  9.43958e+00  1.10949e+01
       O  3.92658e+00  2.60499e+00  7.56683e+00
       H  2.07009e+00  3.31988e+00  7.28971e+00
       H  5.44642e+00  3.43373e+00  7.03009e+00
       O -2.61132e-01  9.90044e+00  7.74616e+00
       H -1.83963e+00  1.08179e+01  7.61395e+00
       H  1.29249e+00  1.10071e+01  6.67289e+00
       O -3.70740e-01  5.25316e+00  6.06290e+00
       H -2.61962e-01  5.36699e+00  4.38182e+00
       H  6.26274e-02  7.20247e+00  6.77799e+00
       O  4.00455e+00  1.26533e+01  6.06201e+00
       H  4.17645e+00  1.30206e+01  4.27679e+00
       H  3.63713e+00  1.46631e+01  6.65819e+00
192
# CELL(abcABC):   16.99620    29.43815    27.67315    90.00000    90.00000    90.00000  Step:          30  Bead:       4 positions{atomic_unit}  cell{atomic_unit}
       O -8.16769e+00 -1.00596e+01 -1.30949e+01
       H  7.41169e+00 -1.07955e+01 -1.34948e+01
       H -6.61611e+00 -1.12654e+01 -1.35764e+01
       O -3.89456e+00 -2.63810e+00 -1.31640e+01
       H -5.28578e+00 -3.83243e+00 -1.37883e+01
       H -2.32018e+00 -3.64659e+00 -1.35306e+01
       O -3.91650e+00 -1.25541e+01 -8.23670e-01
       H -3.93991e+00 -1.44252e+01 -2.87126e-01
       H -4.09789e+00 -1.24607e+01 -2.52743e+00
       O -8.24726e+00 -5.16027e+00 -7.88315e-01
       H -8.54973e+00 -6.98037e+00 -3.45167e-01
       H -8.96049e+00 -4.95321e+00 -2.69411e+00
       O -4.45669e+00 -1.21179e+01 -6.27410e+00
       H -5.96066e+00 -1.10324e+01 -6.69239e+00
       H -2.87135e+00 -1.13855e+01 -7.00506e+00
       O  8.22823e+00 -4.71887e+00 -6.27687e+00
       H  6.98976e+00 -3.41348e+00 -6.57021e+00
       H -7.24519e+00 -3.72175e+00 -6.60980e+00
       O  8.22795e+00 -9.60488e+00 -7.66456e+00
       H  8.26412e+00 -9.31163e+00 -9.64386e+00
       H  7.67942e+00 -7.84488e+00 -7.12114e+00
       O -4.54142e+00 -2.20995e+00 -7.62040e+00
       H -4.43663e+00 -2.31852e+00 -9.51444e+00
       H -4.68616e+00 -2.22695e-01 -7.23752e+00
       O -8.29792e+00 -9.92102e+00  6.79947e-01
       H  7.17307e+00 -1.09627e+01  3.04305e-01
       H -6.96091e+00 -1.07632e+01 -1.28410e-01
       O -3.97845e+00 -2.65505e+00  7.92911e-01
       H -5.42225e+00 -3.85229e+00  5.65413e-01
       H -2.52891e+00 -3.92176e+00  4.41316e-01
       O -3.90866e+00 -1.24511e+01  1.31173e+01
       H -4.08718e+00 -1.42377e+01  1.34281e+01
       H -4.41590e+00 -1.29421e+01  1.11766e+01
       O -8.15256e+00 -5.26101e+00  1.29717e+01
       H -8.07840e+00 -7.18992e+00  1.35525e+01