192
# CELL(abcABC):   16.99620    29.43815    27.67315    90.00000    90.00000    90.00000  Step:           0  Bead:      23 velocities{atomic_unit}  cell{atomic_unit}
       O -7.72993e-04 -1.06813e-03  1.09080e-03
       H -2.01904e-03 -7.39518e-04 -1.71306e-03
       H  5.74855e-03 -5.70106e-03 -1.25468e-03
       O  2.43571e-04  1.72861e-03 -5.96087e-04
       H -2.55093e-03 -2.34708e-03 -2.58432e-03
       H  1.05046e-03 -1.30955e-03 -7.70255e-04
       O  1.56691e-03  1.87840e-04 -1.37732e-03
       H  6.04261e-04  5.64044e-05 -1.51153e-03
       H -1.95785e-03  1.19767e-03 -6.21635e-03
       O -7.75463e-05 -1.12026e-03 -2.30922e-04
       H  6.04850e-04  3.00204e-03  3.06764e-03
       H -1.40408e-03  1.78429e-04 -1.70695e-03
       O  6.40016e-05  3.99376e-04 -5.36257e-04
       H  4.65297e-03  1.26246e-03 -8.71838e-03
       H  6.75380e-03 -9.04249e-03  1.83673e-03
       O  2.77551e-04  3.32749e-04  2.13147e-04
       H  5.50591e-03 -2.59218e-03 -2.03231e-03
       H  7.55586e-04  3.08895e-03  6.85140e-03
       O  1.62693e-03 -7.48485e-04  7.47552e-04
       H -5.24054e-03  4.67401e-03  2.62902e-03
       H  1.56580e-03  1.35074e-03 -4.76046e-04
       O -4.41220e-04 -1.29682e-03 -1.15755e-03
       H  5.44140e-03  6.00078e-03 -4.70664e-04
       H -4.73746e-03  4.44748e-03 -1.52733e-03
       O  1.14855e-04  1.09212e-03 -4.08653e-04
       H  2.33486e-03 -3.00850e-03 -4.26860e-03
       H  1.93026e-03  1.84921e-04  9.84879e-04
       O  1.18560e-04 -5.90928e-07  1.06907e-03
       H  2.20917e-03 -1.89045e-03  2.74956e-03
       H -2.02823e-03 -2.75594e-03 -1.19747e-03
       O  1.16245e-04 -4.01157e-04 -1.08456e-03
       H -5.85315e-03  2.70389e-03 -2.32689e-04
       H  1.29041e-03 -6.50071e-05  1.92637e-03
       O  5.95376e-05  1.31773e-03 -1.12794e-03
       H -3.87663e-03 -4.22838e-03  9.68870e-03
       H  1.76525e-03 -6.85697e-03  2.01122e-04
       O -4.61072e-04  4.70389e-04 -8.15271e-05
       H -5.85289e-03 -6.22843e-04  3.96482e-03
       H -1.46129e-03  1.21216e-03  2.47666e-03
       O  5.91583e-04  1.22957e-03  1.23307e-03
       H -1.71204e-03  1.18705e-03 -2.04041e-03
       H  7.29617e-05  1.85484e-03 -1.96251e-03
       O -4.99528e-04  1.28009e-04  1.08094e-03
       H  1.06815e-03  4.41656e-03  2.07309e-03
       H  6.80241e-03 -5.56978e-04  4.20029e-03
       O -8.26597e-04  2.97431e-04 -1.08254e-03
       H  1.50780e-04  4.37984e-03  6.55883e-03
       H -5.84767e-03  1.52941e-03  5.05911e-03
       O -1.80032e-04  1.05988e-04  3.53228e-04
       H -4.67950e-03  1.66038e-03  3.85727e-03
       H  7.21471e-03 -7.60596e-03 -7.23434e-03
       O -2.22158e-03  1.05314e-03  8.23053e-04
       H -4.37991e-03  4.65794e-03  1.11657e-03
       H -4.20505e-03  6.38026e-03  3.56342e-03
       O  1.22450e-03 -1.65553e-03 -3.32332e-04
       H -5.30369e-03 -4.62924e-03  1.79933e-03
       H -3.90071e-03 -2.41340e-03 -3.89105e-05
       O -6.66026e-04 -8.83989e-04 -7.28103e-04
       H -5.20718e-03  5.07245e-04 -1.83680e-03
       H -3.67160e-03  9.32074e-03 -2.87558e-03
       O -1.72319e-03  8.01251e-04  1.31957e-04
       H -7.80822e-04  2.63280e-03 -1.76342e-03
       H  5.17406e-03 -2.04474e-03  3.70478e-04
       O -9.58448e-04  1.74959e-04 -4.46947e-05
       H  9.02536e-03  1.46367e-03  2.42748e-03
       H  1.68809e-03 -5.34033e-03 -6.13162e-03
       O  3.86924e-04 -1.34505e-03 -1.56313e-03
       H  4.07618e-03 -9.72848e-04  2.30238e-04
       H -2.04491e-03 -3.40576e-04  3.97483e-03
       O  8.55536e-04  9.40608e-04 -1.64141e-03
       H -2.23577e-03 -3.35040e-03 -6.17360e-03
       H  1.03497e-04 -1.62775e-04  3.18501e-03
       O -1.85498e-04 -6.15112e-04  7.60073e-05
       H  7.14882e-04 -1.13099e-03  3.64728e-03
       H -1.63754e-03 -5.06639e-03  1.84023e-03
       O  2.03556e-05 -4.04177e-04 -1.64701e-03
       H  1.61589e-03 -1.03742e-02 -3.41079e-03
       H -5.53956e-03 -2.80014e-03  1.94716e-03
       O -6.49494e-04  6.28634e-04 -1.52117e-03
       H -3.99602e-03  8.69519e-03 -6.08585e-03
       H -2.47591e-03  4.70901e-03 -9.18757e-05
       O  4.09476e-04 -1.19187e-04  1.20105e-03
       H -5.05326e-03  4.09361e-03  3.44290e-03
       H -1.32977e-03 -2.59950e-03 -3.54770e-03
       O  6.78879e-04  5.16160e-05  8.94883e-04
       H -3.97718e-03 -7.21517e-03  4.62790e-03
       H  1.81843e-03  3.77464e-03  2.05835e-03
       O  5.55255e-04  1.46050e-05 -1.72699e-05
       H  3.11781e-03 -4.32892e-03 -6.41686e-04
       H -4.12200e-03  7.75815e-03 -8.33568e-04
       O -7.54098e-04 -5.45645e-04  1.03074e-03
       H -4.48411e-03 -5.46915e-03 -7.93649e-03
       H  1.03824e-03 -1.34963e-03 -4.88935e-03
       O  9.02755e-04 -6.75031e-04 -8.88763e-04
       H -5.18888e-04 -2.72111e-03 -1.90798e-04
       H -5.89205e-05  3.37587e-03  3.22190e-03
       O -2.52215e-04  1.74918e-03 -1.57110e-03
       H -4.50217e-03  1.37014e-03  8.13514e-04
       H -1.40415e-03  2.83313e-03  6.98376e-03
       O -3.16638e-03 -7.78029e-04 -6.29920e-05
       H  3.20727e-03  2.57814e-03 -5.40833e-03
       H -3.06201e-03  6.06428e-03 -2.87507e-03
       O -9.54254e-04 -6.82131e-04  1.67928e-04
       H -1.34776e-03  5.94174e-03 -1.68004e-03
       H -9.48084e-04  3.03281e-03  4.83511e-04
       O  2.27802e-05  4.63625e-05 -1.14985e-03
       H -2.30798e-03 -2.38490e-03  1.18306e-03
       H -8.96268e-04 -1.68988e-03  2.13393e-04
       O -9.71068e-04  3.31432e-04 -1.30703e-04
       H -3.62588e-03  6.46068e-03 -4.18665e-03
       H -2.67584e-03 -9.58113e-04  4.80879e-04
       O  1.14466e-04  3.89268e-04  1.73553e-03
       H -2.23947e-03 -4.28851e-03  5.63499e-03
       H -3.45415e-04  5.33215e-03 -3.77485e-03
       O  5.40791e-04 -6.43645e-04  2.56890e-04
       H  1.43720e-04  9.47754e-03  6.59291e-04
       H  6.70321e-03  3.34004e-04  1.11301e-03
       O  1.12694e-03  4.10511e-04  4.95365e-04
       H -6.68861e-03 -1.58657e-03 -5.41708e-03
       H  6.06666e-03 -2.18826e-03 -2.25925e-03
       O  1.37972e-03  3.43082e-05 -1.08735e-03
       H -2.04841e-03  4.19616e-04 -5.55692e-05
       H  3.88204e-03  6.46452e-03 -3.18745e-03
       O -4.61044e-04  1.23264e-03 -8.67009e-04
       H  4.80106e-03 -2.43547e-05 -2.77355e-03
       H  1.75724e-03 -3.39378e-03 -3.53109e-03
       O  2.61786e-04 -5.23653e-04  5.06753e-04
       H -9.79159e-06 -2.57052e-03 -2.50582e-03
       H -1.74563e-03 -1.58773e-03  4.07550e-03
       O  1.46797e-03 -1.67884e-04  4.45752e-04
       H  2.57681e-03  4.05535e-03  3.15717e-03
       H  1.58409e-03 -6.63355e-03  2.52709e-03
       O -1.72277e-03  5.40869e-04  6.64362e-05
       H -2.17119e-03  2.72128e-03 -2.30557e-03
       H  2.39885e-03  1.88498e-03 -1.75044e-03
       O  6.26819e-04 -8.36582e-04  1.13197e-03
       H  9.67760e-04  5.61892e-03 -3.20137e-04
       H  3.22536e-03 -5.41782e-03  3.65738e-03
       O -5.49876e-04  1.66173e-04 -5.54222e-04
       H -8.46257e-03 -1.32234e-03  2.63510e-03
       H -1.88217e-03  3.07023e-03 -3.21990e-03
       O -8.39449e-04 -1.05983e-04 -4.04278e-04
       H  1.94000e-03 -8.55293e-04 -1.72008e-03
       H -5.19485e-04  6.75498e-04  7.67379e-04
       O -2.24872e-04 -1.27242e-03  1.75297e-04
       H  2.31487e-03  6.85761e-03 -7.84592e-03
       H -4.58489e-03  1.65507e-03 -3.40824e-03
       O -4.35307e-04 -7.83599e-04  4.95614e-04
       H -2.14733e-04  3.77247e-04  1.45762e-03
       H  9.35576e-03  4.23513e-04 -4.17398e-03
       O -8.20095e-04  6.75233e-04 -1.00304e-03
       H  3.08575e-03 -1.23062e-03  2.91205e-03
       H  1.52228e-03  2.60232e-03  2.86261e-03
       O -2.30214e-04  1.50250e-03  4.45891e-04
       H  3.33909e-03  1.20275e-03 -4.72614e-03
       H -1.45007e-03  4.76186e-04 -5.16997e-03
       O -7.73582e-04 -9.35440e-04 -1.07995e-04
       H  3.29598e-04 -2.90744e-03 -5.35605e-03
       H  2.81670e-03  3.01549e-03 -1.43766e-03
       O  3.61428e-04  1.21319e-03  4.05084e-04
       H  1.75184e-03  1.26652e-03  3.40997e-03
       H -9.67899e-03  3.92894e-04  3.70042e-04
       O -6.85179e-04 -2.25156e-04  1.28125e-03
       H  3.87085e-03  8.10691e-03 -2.46425e-05
       H  6.03785e-04  3.40814e-03  2.40310e-03
       O -8.35798e-04  7.23347e-04  9.14452e-04
       H  5.75860e-03  2.66128e-04  3.32551e-03
       H  1.68298e-03 -1.98537e-03  1.34429e-04
       O -1.17571e-03 -5.86422e-04 -1.49812e-04
       H -2.96485e-03  2.31194e-03  1.84901e-03
       H  2.58615e-04 -3.42384e-03 -1.93749e-03
       O  6.74986e-04  8.55401e-04 -3.62991e-04
       H -3.36195e-03  3.86473e-03 -4.84738e-03
       H -2.05431e-03 -1.52956e-03  3.00708e-03
       O  1.58127e-03 -1.01790e-03  7.54375e-04
       H -1.35076e-03 -4.68310e-03 -2.23500e-03
       H  7.92367e-04  2.28283e-03  1.33852e-03
       O  5.00269e-04  1.10106e-03  1.70044e-04
       H  9.10389e-03  1.14583e-03  4.12126e-03
       H  4.58047e-03  4.85684e-03  5.94301e-03
       O  8.04707e-04  1.34442e-03  7.26532e-04
       H  2.47108e-03  4.47024e-03  1.37017e-03
       H -5.51004e-04  4.39945e-03 -4.08343e-03
       O -2.39381e-04  5.19770e-05  5.98586e-05
       H  3.77635e-04 -1.42002e-03 -1.40947e-03
       H -2.92143e-03  2.87987e-03 -5.81480e-03
       O  1.16455e-03 -8.32671e-04  6.61275e-04
       H  1.55015e-03  9.69482e-04 -5.12836e-04
       H -1.86788e-03 -2.88180e-03 -8.73779e-03
       O -3.76008e-04 -3.66626e-04 -3.52191e-04
       H -1.03058e-03  2.11412e-03 -7.03852e-03
       H -5.39287e-03  1.43440e-03 -3.11024e-03
192
# CELL(abcABC):   16.99620    29.43815    27.67315    90.00000    90.00000    90.00000  Step:          10  Bead:      23 velocities{atomic_unit}  cell{atomic_unit}
       O  2.18181e-04 -1.58257e-03  1.96260e-03
       H -2.64737e-03 -1.54838e-04 -7.39555e-04
       H  8.97205e-04  8.24565e-03 -3.58857e-03
       O -4.52718e-04 -7.34097e-04  1.17245e-03
       H -3.49124e-03  8.73272e-04 -1.60711e-03
       H  1.23200e-03 -7.16061e-04  2.24225e-03
       O -6.53422e-04 -6.61451e-04  3.61601e-05
       H  3.02037e-03 -3.32375e-03  5.21031e-03
       H  3.58955e-03 -1.02880e-03  2.24285e-05
       O -9.13471e-04 -1.13338e-03  1.74424e-03
       H  3.89239e-03 -1.31919e-03  6.51916e-04
       H -3.31506e-03  5.82273e-03 -8.88354e-04
       O  8.43972e-05 -1.16938e-03  1.42767e-04
       H  1.69418e-03 -5.25785e-03 -7.69346e-04
       H  7.55063e-04 -6.53868e-03 -3.48389e-03
       O  9.00274e-04  1.75758e-03 -7.15932e-04
       H -2.72714e-03 -6.11440e-04  5.44019e-03
       H -1.78770e-03 -1.19317e-03 -7.27234e-03
       O  2.99786e-04 -6.40178e-04  7.15836e-04
       H -4.53199e-03  3.48630e-03 -3.34233e-03
       H  2.72552e-03  2.40554e-04 -2.25025e-03
       O  6.57110e-05 -1.06447e-03 -6.52530e-04
       H  8.97017e-06  2.74329e-03  6.14961e-04
       H -3.30675e-03 -3.27241e-03  2.65776e-03
       O  4.92700e-04  5.73851e-04 -8.03218e-04
       H -4.32854e-03 -3.71333e-03 -2.37056e-03
       H  2.65257e-03  1.32611e-03 -8.66263e-03
       O  2.22267e-03  5.17492e-04  1.15700e-04
       H  7.96694e-03 -3.98487e-03  1.02413e-03
       H  2.41828e-03 -3.03954e-03 -1.94055e-03
       O  6.85216e-04 -6.56930e-04 -1.49212e-04
       H -3.71068e-03 -2.02346e-03  2.91593e-03
       H -4.45955e-03  8.17684e-04  1.65731e-03
       O -1.30171e-03 -1.74138e-04  7.92939e-05
       H  2.30996e-04 -2.87139e-03 -2.69479e-03
       H -1.66351e-03 -1.84904e-03 -4.68837e-03
       O  9.75054e-04 -6.43077e-04  6.55559e-04
       H  8.52563e-04  1.79712e-03 -2.79201e-03
       H -8.43139e-05 -6.12097e-03  1.18855e-03
       O -1.51234e-04  4.28377e-04 -9.82373e-04
       H  3.95819e-03  2.02204e-04 -1.71791e-03
       H -8.04308e-04 -1.63182e-03  2.62753e-03
       O -2.46379e-04 -1.11156e-04  1.74138e-04
       H -1.07019e-04  3.25581e-03 -1.92854e-03
       H  4.44655e-03 -1.83274e-03  1.52191e-03
       O  3.14653e-04  6.63979e-04 -9.37487e-04
       H -6.68631e-04  1.30703e-04 -6.29364e-03
       H -4.24362e-03 -3.34990e-04 -5.70451e-03
       O  5.15289e-04 -3.34367e-04 -3.12746e-04
       H -8.95062e-05  3.05789e-03  1.50752e-03
       H -2.16181e-03 -2.81349e-03 -6.03227e-03
       O -1.37592e-04  2.18189e-03  5.63277e-04
       H  2.42505e-03  8.19190e-03  2.74634e-03
       H  5.01883e-03  2.63790e-04  3.23256e-03
       O  9.94568e-05  1.68437e-03  5.50675e-04
       H -6.49139e-03  7.32602e-03 -3.47933e-03
       H -2.03244e-04  4.43011e-05 -2.02321e-03
       O -8.60038e-05  1.88167e-03 -2.27500e-04
       H -5.42092e-04  7.15113e-03 -1.45229e-03
       H -1.73487e-04 -1.16998e-03 -6.87004e-04
       O  2.60527e-04  6.53338e-04  3.12219e-04
       H -6.78917e-04  3.00822e-03 -8.87862e-03
       H  1.43136e-03  5.80170e-03  3.85580e-03
       O  1.02944e-03 -1.00666e-03 -7.09614e-04
       H -6.03487e-04 -6.91459e-03  7.77713e-04
       H -3.00407e-03 -1.15799e-03  8.25980e-04
       O  4.55154e-04  6.83883e-04  4.53565e-04
       H  2.58715e-03  3.22841e-03  5.24725e-03
       H -2.04758e-03 -1.22753e-03  2.51109e-03
       O -5.67498e-04  7.42379e-04  5.39233e-04
       H  5.70150e-03 -4.01402e-03 -2.68641e-04
       H  7.65974e-04  3.44498e-03 -5.06133e-03
       O  1.94459e-03 -8.11081e-04  5.11292e-04
       H -2.84840e-03 -1.56149e-03  5.98941e-03
       H -4.21510e-03 -1.72077e-03  5.04378e-03
       O -8.39251e-04 -1.31452e-04 -4.01564e-05
       H  6.06663e-03  4.92357e-03  4.63699e-03
       H -1.48080e-03  5.24174e-03  1.47706e-03
       O -1.19511e-03 -1.43792e-03  2.41215e-04
       H -3.25440e-03 -6.46790e-03 -4.38986e-03
       H -6.58384e-03 -3.68215e-03  2.20527e-03
       O -8.83064e-05  2.80912e-04 -8.95670e-04
       H -6.78884e-04  5.22742e-03 -4.46491e-03
       H -2.12163e-03 -6.03131e-05  5.65621e-04
       O -8.44780e-04 -3.60782e-04 -9.24843e-04
       H -3.33585e-03  9.99169e-04  3.85869e-03
       H  6.52808e-03 -9.61088e-04  1.50651e-03
       O -1.25927e-03  5.25567e-04 -1.15716e-04
       H -4.51654e-03  3.45792e-03  2.50161e-03
       H  4.73494e-06  5.79529e-03 -3.12795e-05
       O -6.28347e-04 -3.81567e-04 -8.37815e-04
       H -4.81503e-03 -1.61102e-03  4.47710e-03
       H -2.31394e-03  1.24352e-03  5.29165e-03
       O -3.66320e-04 -1.76481e-03 -7.84781e-04
       H -4.08997e-03  1.06085e-03  2.52106e-03
       H  9.58742e-04 -6.69040e-03  1.82470e-03
       O -1.85303e-03  1.87925e-03 -3.73997e-04
       H -9.92708e-05 -1.87239e-03  1.64665e-03
       H -9.58256e-04 -4.16906e-03  1.85889e-03
       O  5.09227e-05  3.40416e-04 -1.19008e-03
       H -2.18593e-03 -3.30263e-03 -3.31003e-03
       H  2.71951e-03 -1.94156e-03  2.41143e-03
       O -4.21920e-04 -1.54136e-04 -2.44239e-05
       H -6.98641e-04 -2.50662e-03 -4.20651e-03
       H  5.07798e-03  1.52494e-03 -3.83545e-04
       O  6.30330e-05 -7.78156e-04  4.40310e-04
       H  2.21463e-03  3.60530e-03 -1.14613e-03
       H -1.46452e-03 -3.47066e-03  1.34726e-03
       O  1.42173e-03 -5.47608e-04 -5.43567e-04
       H -2.00127e-04  6.04087e-04  4.69125e-03
       H  2.59520e-03  1.60784e-03  4.23742e-03
       O  2.84020e-04  1.63395e-04  2.93330e-04
       H -6.01240e-03  4.24086e-03  1.85007e-03
       H  5.75843e-03 -9.72208e-04  9.00348e-03
       O  8.03189e-04  1.42986e-03 -6.89587e-05
       H -8.16291e-03 -3.65176e-03 -3.82176e-04
       H -6.38356e-04 -1.91215e-03 -1.24868e-03
       O -1.49564e-04 -1.87268e-03  6.54665e-05
       H  4.55329e-03  9.87224e-04 -2.90906e-03
       H  5.47554e-04  3.76201e-03  2.18863e-03
       O  1.54256e-03  1.03805e-03 -5.22915e-04
       H -3.44614e-03 -9.64222e-04 -2.22480e-03
       H  1.93075e-03  2.08792e-03  2.12035e-03
       O -1.07063e-03 -7.58420e-04 -1.41979e-03
       H  1.37663e-03  3.62692e-03 -7.60300e-03
       H  4.20726e-03 -4.64718e-03  3.21406e-04
       O  8.07744e-04 -9.65680e-04 -1.68682e-05
       H -2.59595e-04 -2.85265e-03  5.02692e-03
       H  5.47437e-03 -6.69304e-04 -1.04384e-03
       O  6.71116e-05 -9.27634e-04  7.80851e-06
       H -2.42161e-03  1.25341e-04 -1.18144e-03
       H  3.42524e-03 -1.46884e-03  7.19223e-04
       O -7.80187e-04 -1.73397e-03  1.47389e-05
       H  2.80523e-03  4.17551e-03 -4.19946e-03
       H  7.50354e-03 -7.12649e-04  5.29749e-04
       O  5.34231e-04  1.17728e-03  8.28004e-04
       H -4.38405e-04  5.51939e-03 -6.06588e-03
       H  2.51740e-04  1.98109e-03  2.94986e-03
       O -6.79035e-04 -4.28698e-05  1.12660e-03
       H -1.51685e-03  2.25585e-03  5.97969e-03
       H  3.70015e-03  1.61757e-03 -2.02836e-03
       O  1.66160e-03 -4.40456e-04  2.24153e-04
       H  1.66226e-03  1.22686e-03  2.45851e-03
       H -5.20924e-03  2.53021e-04 -1.45752e-03
       O -3.62768e-05 -5.51076e-04 -8.87520e-05
       H -4.48985e-03  7.05989e-03 -4.70692e-03
       H -7.31853e-05  2.22996e-03  2.39813e-03
       O  3.69186e-04 -8.72666e-04 -5.66672e-04
       H -1.82341e-03 -4.77514e-04  1.93582e-03
       H  9.72486e-04 -7.64500e-04  1.96543e-03
       O  1.19079e-03 -2.34873e-04  9.46732e-04
       H -2.35984e-03  6.59487e-04  2.58132e-03
       H  1.65210e-03 -1.78871e-03  2.94346e-03
       O -1.81874e-03 -8.48530e-04  4.69688e-04
       H  8.37888e-03  1.65637e-03 -8.91599e-04
       H -1.10914e-03 -2.42592e-04 -4.93443e-03
       O  9.27126e-04 -1.17704e-03  1.03250e-03
       H -2.62514e-03  4.63488e-03  2.03112e-03
       H  6.74162e-03 -4.98020e-03  5.24419e-03
       O  1.46694e-04 -3.78159e-04  9.89720e-04
       H -1.40389e-03 -5.61738e-03  7.92268e-03
       H -1.04413e-03 -3.52582e-03  6.00985e-04
       O -1.06012e-03  2.59891e-03  6.32448e-04
       H -6.53131e-03 -2.93145e-03 -2.84726e-03
       H  2.31461e-03  1.85054e-03 -1.39653e-03
       O  1.06282e-03  4.81300e-04 -1.42500e-03
       H  4.96038e-03  4.19676e-03  7.09788e-03
       H  1.68572e-03 -1.21354e-03  5.96188e-03
       O -1.05056e-03 -8.70773e-04  2.45549e-04
       H  2.70077e-03  3.23537e-03 -6.84533e-04
       H  2.54740e-04 -3.59907e-03  5.26415e-03
       O  9.16362e-04 -7.02541e-04  1.72094e-03
       H -1.99024e-03  7.13457e-03  2.57617e-03
       H -4.54756e-04 -1.28902e-03 -1.54913e-03
       O  9.13213e-05  1.93757e-04 -6.43210e-04
       H  3.79271e-03  1.13712e-03  2.26495e-04
       H -5.26599e-03  3.19097e-03  4.25242e-03
       O  4.86994e-04 -1.27100e-03  9.98477e-04
       H  9.23554e-03 -2.80144e-04 -3.60075e-05
       H  4.70610e-03  4.24744e-03 -4.30569e-03
       O -1.83071e-03 -1.80032e-04  9.27623e-04
       H -1.44522e-03 -6.32471e-04 -1.16197e-03
       H -4.47081e-03 -2.96223e-04 -3.64957e-03
       O -1.14193e-03 -2.83259e-04  6.80505e-04
       H  3.73988e-03 -1.91303e-03  7.03794e-03
       H  1.93260e-03 -1.09484e-04 -1.77041e-03
       O -7.16331e-06  8.24726e-04 -1.05624e-03
       H  6.16631e-04  1.65089e-03 -1.67857e-03
       H -5.73977e-03  2.23703e-03  1.65153e-03
       O -3.46629e-04 -1.13602e-03  8.45552e-05
       H  5.12707e-03 -7.07860e-04 -5.30919e-04
       H -3.39020e-04  5.56980e-04  2.54078e-03
192
# CELL(abcABC):   16.99620    29.43815    27.67315    90.00000    90.00000    90.00000  Step:          20  Bead:      23 velocities{atomic_unit}  cell{atomic_unit}
       O  1.53176e-04 -2.90592e-04 -2.65426e-04
       H -1.14405e-03  3.91784e-03 -4.45333e-04
       H -1.32515e-03 -1.37652e-03 -1.26421e-03
       O  1.29204e-03 -9.13405e-04 -1.33735e-03
       H  3.71741e-03 -7.75874e-04 -2.88023e-03
       H  7.37481e-04  3.91922e-03 -3.16779e-03
       O  1.29591e-03 -1.79125e-03  7.99076e-04
       H  4.23046e-03 -1.17596e-02  6.40334e-04
       H -3.78427e-03 -4.88625e-04  2.29937e-03
       O -2.82431e-05  7.33686e-04  6.55481e-04
       H -8.25346e-03  1.09935e-03 -1.42793e-03
       H -4.22082e-03 -3.45398e-04  2.53586e-03
       O -6.10672e-04 -8.08797e-04  2.03362e-03
       H  3.58794e-03 -2.96939e-03 -3.57517e-03
       H -3.87370e-03  4.21261e-03  2.32635e-03
       O  4.44605e-04  8.28915e-04 -1.51453e-03
       H  5.85881e-04  5.01718e-03  4.65828e-04
       H -5.50059e-03  3.25473e-03 -4.30973e-03
       O  7.48251e-04  7.94156e-04 -8.40605e-04
       H  1.98466e-03 -1.26472e-03  1.86364e-03
       H -4.17781e-03  1.24170e-03  8.52750e-03
       O  1.35344e-03 -5.70322e-04 -3.88957e-04
       H  9.00389e-03 -2.64551e-03  9.77865e-04
       H  4.57391e-03 -9.37623e-04  7.96572e-04
       O -5.93676e-04  2.45680e-06  7.90303e-04
       H  2.33607e-03 -3.20951e-03 -2.07199e-03
       H -1.46873e-04 -1.80145e-03 -1.54523e-03
       O -6.70954e-04  3.55624e-05  1.10708e-03
       H  1.07285e-02 -3.11329e-04  5.64374e-03
       H  2.37035e-03  1.58569e-03  1.88717e-03
       O -7.25175e-04 -3.66872e-04 -7.95055e-05
       H -2.40947e-03 -3.84504e-03  1.59502e-03
       H -2.87747e-03  4.02664e-03 -5.17735e-04
       O -1.24335e-03 -3.16712e-04 -4.60437e-04
       H -6.83386e-03  5.80819e-03  8.95700e-04
       H  6.95907e-03 -9.90425e-04  2.89311e-03
       O  2.28040e-04  1.01955e-03 -6.74011e-04
       H  9.67033e-03  3.94532e-04  4.32076e-03
       H -3.22932e-03  4.97228e-04  2.35025e-03
       O -2.11088e-04 -1.58329e-03  1.23961e-03
       H  4.90275e-03  2.41622e-03  4.31740e-03
       H -6.54487e-04 -9.96790e-04 -4.62857e-03
       O  1.94937e-05 -1.47622e-04 -5.43977e-04
       H -5.55482e-04  4.47303e-03  4.44059e-03
       H -1.80221e-03  1.12409e-03 -2.62224e-03
       O -7.66391e-04 -1.92311e-03 -1.10880e-03
       H -1.54165e-03  5.30146e-03 -7.00950e-03
       H -7.54706e-04  4.63906e-03  3.96156e-03
       O  8.06467e-04 -4.43472e-04 -1.14165e-03
       H -1.01054e-02 -9.53673e-04  2.52643e-03
       H -5.81521e-03  6.25725e-04 -3.49714e-03
       O  5.77245e-04  2.06613e-03 -7.54301e-04
       H -3.93727e-03 -7.12814e-03 -7.91269e-04
       H -2.07913e-03  1.96780e-03 -9.95859e-03
       O  5.08215e-04  1.74398e-03 -8.54508e-04
       H  2.74210e-03  2.11419e-03  7.79959e-04
       H -1.81051e-03 -6.26203e-04  1.20247e-03
       O -5.60912e-05  9.44449e-04  8.33231e-04
       H -8.33172e-05  2.14132e-03 -1.86099e-04
       H -1.56425e-03  1.55143e-03  6.98329e-04
       O -9.38693e-04  1.87233e-03  4.53530e-04
       H -1.74481e-03 -4.38056e-03  4.70111e-03
       H  4.76632e-03  4.14828e-03 -4.64676e-03
       O  5.51718e-04  1.42215e-03  8.85794e-04
       H -2.25762e-03  3.69391e-03  2.64900e-03
       H -5.23765e-03 -4.54839e-03  2.96540e-03
       O -6.98939e-04 -8.93504e-04  4.99378e-04
       H  3.82785e-04  1.51550e-03  3.04427e-04
       H  2.01647e-03 -1.66274e-03  3.49878e-03
       O  7.82917e-04  5.22254e-04  3.06772e-04
       H -8.81143e-03 -1.14755e-04  2.06822e-03
       H -3.55228e-03 -2.75347e-04  2.61296e-03
       O -1.85073e-04 -1.81013e-04 -1.44836e-04
       H -4.81644e-03  1.20976e-04 -3.10936e-03
       H  4.63540e-03 -4.46948e-03 -2.69130e-04
       O  3.23090e-05 -2.63935e-04 -2.81974e-04
       H -3.11486e-05 -2.05882e-03  1.41158e-03
       H  5.97829e-03  1.39468e-03 -1.99495e-03
       O -1.13823e-03  6.00491e-04  4.55201e-04
       H  2.20068e-04 -2.96794e-03  2.14752e-03
       H -4.28756e-03  3.22237e-03 -6.77671e-04
       O  1.15479e-03  5.51243e-04  1.60587e-03
       H -4.08940e-03 -2.65088e-03 -3.09318e-03
       H -4.00580e-03  7.02424e-03 -1.38586e-03
       O  1.27755e-03 -8.95024e-04 -3.31889e-04
       H -4.35853e-03  4.73992e-03  4.48566e-03
       H -3.31905e-04  3.87388e-03 -4.08119e-03
       O -2.24175e-03  1.43232e-03 -8.70704e-04
       H  2.70582e-03 -1.63634e-03 -8.34631e-03
       H -4.23866e-03 -1.85168e-03  9.67328e-04
       O -1.82510e-04  1.79640e-03 -1.37362e-03
       H -1.62998e-03 -2.78964e-03  1.24948e-04
       H  3.99821e-03 -2.41486e-03  1.63778e-03
       O -3.92163e-04  9.24902e-05  9.39861e-04
       H -2.66930e-03  1.24208e-03  6.20543e-05
       H  1.40928e-03 -5.34862e-04  1.01882e-03
       O -2.57549e-04  1.99874e-03  1.80436e-03
       H -1.42013e-03 -1.08633e-03  8.34236e-03
       H -3.92203e-03  4.09820e-03  6.38670e-03
       O -2.53441e-04  2.97341e-04 -8.19971e-05
       H  9.62000e-04 -5.29905e-03 -1.18994e-03
       H  7.09219e-04  3.96031e-03 -3.47739e-03
       O  6.10541e-04 -1.50094e-03  1.30898e-03
       H -4.76022e-03 -6.27650e-03 -3.87081e-03
       H  5.49791e-03 -4.41592e-03 -7.30314e-03
       O  1.80622e-04  6.59473e-04 -4.92491e-04
       H -7.04558e-04  4.31833e-03 -2.82242e-03
       H -9.33370e-04 -9.62760e-04  7.31136e-04
       O -1.10732e-03 -8.98118e-04  1.37625e-04
       H -2.76905e-03 -2.12363e-03  3.21542e-03
       H -2.79525e-04  3.44249e-03  5.43073e-03
       O -5.03699e-04  6.33925e-04 -4.54476e-04
       H -2.03449e-03 -5.26345e-03  1.06655e-03
       H -6.34080e-05 -2.97539e-03 -6.75817e-04
       O -1.16254e-03 -1.34917e-03  1.67833e-04
       H  1.56870e-04 -4.19858e-03 -1.12663e-03
       H -1.82219e-04 -2.94242e-03  6.88065e-03
       O  1.18986e-03  2.36634e-03 -6.42359e-04
       H  3.59110e-03 -2.41630e-03  1.78167e-04
       H  2.27090e-05 -4.88488e-03 -4.03507e-04
       O -1.95897e-03 -7.31500e-04  3.55898e-04
       H -3.83293e-03  4.56622e-03  7.22550e-03
       H -3.14195e-03 -1.94808e-03 -1.78010e-03
       O -7.47712e-04  3.88259e-04 -1.12766e-03
       H -3.06786e-04  5.70595e-03  7.80239e-03
       H  4.04874e-03  4.22370e-03 -5.43774e-03
       O  1.74069e-04 -1.77214e-03 -4.00256e-04
       H  3.18529e-03  1.55008e-03 -2.72584e-03
       H -2.10640e-03  3.24965e-03 -3.19994e-03
       O -5.15178e-04 -2.66359e-04 -2.96859e-04
       H -1.18558e-03 -2.32651e-03  5.82255e-03
       H -1.74794e-03  4.29987e-03  4.39134e-03
       O -3.92570e-04  1.02592e-04 -1.98582e-04
       H -5.61244e-03  5.43645e-03 -1.43500e-04
       H -5.72881e-03 -1.28981e-03 -4.49630e-03
       O  7.92336e-04 -1.90697e-04  4.80936e-04
       H  4.96856e-03  4.40645e-03  4.32576e-03
       H -4.92141e-03  6.10117e-05 -8.85634e-05
       O -6.61477e-04 -1.59311e-04  7.03966e-04
       H -3.00099e-03 -1.57063e-03  3.69224e-03
       H -2.80818e-04 -2.05086e-03  3.10027e-03
       O -7.43183e-04 -5.13563e-04 -6.49308e-05
       H -4.62394e-03 -1.80216e-03 -1.90861e-03
       H -1.97610e-03 -8.34373e-03  2.34426e-03
       O -3.58437e-04 -3.52344e-04  4.29847e-05
       H  2.29146e-03 -5.50274e-03  1.73891e-03
       H  4.41512e-03  4.48110e-03  1.18539e-03
       O  4.59413e-04 -9.55471e-05  1.34527e-04
       H -5.95558e-03 -1.78482e-03  8.82304e-04
       H -3.36645e-04  2.24124e-03  4.87150e-03
       O -1.15948e-03 -2.10093e-03 -3.10281e-05
       H -7.78162e-04 -2.32170e-04  3.20656e-03
       H -2.17845e-03  1.23639e-03 -3.17767e-03
       O -4.76594e-04  1.04044e-03  1.41022e-03
       H  2.68147e-03  4.84861e-03  4.20856e-03
       H -4.79177e-03 -4.91498e-03  3.94702e-03
       O  1.17673e-03  9.25952e-05  1.93723e-04
       H  6.50449e-04 -4.02286e-03  2.14082e-03
       H -1.98445e-03 -3.34616e-03  4.64299e-03
       O -4.40700e-04  8.28864e-05  1.03213e-03
       H  4.48432e-04  3.31867e-04 -2.74153e-03
       H  1.08464e-03  9.13655e-03 -3.06783e-03
       O -2.01530e-03 -2.84274e-04 -1.84218e-04
       H  5.94344e-04 -4.66995e-03 -5.20486e-03
       H -2.38769e-03 -9.05161e-03  2.88097e-03
       O -2.85990e-04 -1.11172e-03  8.25791e-05
       H -1.51716e-03  5.81796e-03  1.30196e-03
       H  1.82359e-03  2.22833e-03 -2.62378e-03
       O -1.32478e-03 -1.20469e-03  3.32025e-04
       H  2.16719e-03 -2.74786e-03 -6.30658e-03
       H  1.37852e-03  1.19031e-03 -5.76407e-04
       O  1.74441e-03 -5.93206e-04  7.53586e-04
       H  2.62560e-03 -6.80231e-03 -7.12802e-03
       H  1.84695e-03 -5.09299e-04  1.51286e-03
       O -2.22592e-05  1.43983e-03 -7.12614e-04
       H -4.02879e-03 -1.27311e-03 -3.97702e-03
       H -5.82382e-03 -5.01026e-03  3.60495e-06
       O -4.79310e-04 -1.04924e-03  3.11938e-04
       H  1.31492e-03  6.57588e-03 -8.05345e-03
       H -3.92026e-03 -3.61945e-03 -1.16329e-03
       O  6.75939e-04 -1.54533e-03  1.81202e-03
       H -2.87630e-04 -1.74079e-03  2.25835e-03
       H  4.59939e-03  4.95725e-04  7.08296e-03
       O -1.25611e-03 -8.50230e-05  6.09132e-04
       H  4.92294e-03  8.25552e-05  3.69353e-03
       H  4.15067e-03 -3.50918e-03  3.54749e-03
       O -9.91806e-05  6.58218e-04 -1.45836e-04
       H -2.68753e-04 -2.25963e-03 -2.42215e-03
       H -6.42996e-05  2.74371e-03  1.92983e-03
       O  1.29486e-03 -3.39867e-04 -4.22893e-04
       H -2.20880e-03  4.49787e-03 -2.07153e-03
       H -2.98894e-03 -7.22030e-03  2.75457e-03
192
# CELL(abcABC):   16.99620    29.43815    27.67315    90.00000    90.00000    90.00000  Step:          30  Bead:      23 velocities{atomic_unit}  cell{atomic_unit}
       O  1.18237e-03  6.25349e-04 -7.76458e-04
       H  3.46308e-04 -2.96034e-03  2.89588e-03
       H -6.63884e-03 -2.34847e-03  1.91942e-03
       O  1.40533e-03  1.36033e-03 -7.39242e-04
       H  3.36324e-03  5.96507e-04  4.28295e-03
       H -2.90264e-03 -7.85221e-03 -2.82282e-03
       O -8.60344e-05 -9.37841e-04  3.71401e-04
       H -6.12383e-04  9.35471e-03 -7.51203e-04
       H  5.79399e-03  3.41564e-03  4.54501e-03
       O  9.52845e-05 -7.85741e-04  9.65017e-05
       H  2.97191e-04  3.31945e-03  8.21567e-03
       H  1.02373e-03  9.30363e-04  3.56524e-03
       O  7.87911e-04  7.04164e-04 -7.22630e-04
       H -5.94388e-04 -3.04568e-03 -6.04888e-04
       H -1.92508e-03 -3.47471e-03  2.39344e-03
       O -9.19800e-04 -9.44223e-04  1.31126e-03
       H -7.64086e-04 -6.02492e-03  4.23411e-03
       H  3.10175e-03 -9.32578e-04  2.01057e-03
       O  5.81098e-04  6.29667e-04  3.77199e-05
       H -3.67144e-03 -7.23474e-04  3.08145e-03
       H  1.70501e-03 -8.03643e-03  3.06252e-03
       O  1.33961e-03  7.57320e-04 -5.76039e-04
       H -3.98326e-04  7.74322e-05 -1.82309e-03
       H -3.69135e-03  1.33423e-03  1.64104e-03
       O -4.57434e-04  2.03337e-04 -7.68559e-04
       H -9.28325e-04 -1.72343e-03  3.34096e-03
       H -6.04241e-03  5.83432e-03  4.92230e-04
       O  1.67493e-05 -7.47164e-04  6.84055e-04
       H -8.41547e-03  1.15272e-03 -6.65412e-03
       H -1.79231e-03 -1.86600e-03 -4.19706e-03
       O  2.52207e-04 -9.38452e-04  2.97230e-04
       H -1.17890e-02  2.81487e-03  1.13260e-03
       H  4.57888e-03  5.11693e-03 -2.81900e-03
       O -2.78255e-05 -2.89849e-04 -8.86646e-04
       H -5.34995e-03 -3.49264e-03  2.63382e-03