192
# CELL(abcABC):   16.99620    29.43815    27.67315    90.00000    90.00000    90.00000  Step:           0  Bead:       7 velocities{atomic_unit}  cell{atomic_unit}
       O -1.00922e-03  4.31638e-04  1.27173e-04
       H  2.22528e-03  1.58778e-04 -7.98460e-04
       H -2.79717e-03  1.04748e-03 -4.28328e-03
       O  5.01811e-04 -7.43852e-04  4.63105e-04
       H -2.33756e-03 -4.01114e-03  5.65222e-03
       H  1.66452e-03 -1.38169e-03 -1.89755e-03
       O  1.04915e-04 -9.41213e-04  5.79068e-04
       H  2.16491e-04 -3.18379e-03  2.19955e-03
       H -1.92382e-03 -8.43270e-03  3.00512e-03
       O -9.71964e-04  2.83689e-04 -2.63739e-04
       H -3.09161e-03 -2.47466e-03 -2.59974e-04
       H -5.36646e-04  1.22947e-03  7.15247e-04
       O -9.07371e-04  9.57182e-04 -7.78493e-04
       H  1.05067e-05  6.66446e-04 -3.90709e-04
       H -4.84773e-03 -9.48457e-04 -1.43645e-03
       O  3.06724e-04 -4.64153e-04  5.89690e-04
       H  3.27573e-03  2.93664e-03 -1.26505e-03
       H -2.98238e-03  5.67456e-03 -5.48072e-03
       O  5.43617e-05  8.24857e-04  2.19498e-03
       H  1.35048e-03 -1.50699e-04 -4.24843e-03
       H -2.23338e-03  1.48709e-03  2.23336e-03
       O -3.33388e-04  4.32630e-04 -5.10635e-04
       H  1.66480e-03  3.52528e-03  1.14302e-03
       H -4.22011e-03  3.76041e-04  1.95250e-04
       O -8.48407e-04  6.46495e-04  2.41031e-04
       H -2.42388e-03 -4.39646e-03 -6.86427e-03
       H -2.35758e-03 -4.81525e-03 -2.30444e-03
       O  1.41125e-03  1.01971e-03  6.97989e-05
       H -1.56305e-03 -5.62792e-03  2.96791e-03
       H -3.63434e-03 -2.67792e-03 -1.14339e-03
       O -2.35697e-03  8.11670e-04 -2.41170e-04
       H -3.27722e-03 -2.00026e-03 -1.44457e-03
       H -4.74316e-04 -2.14164e-03  7.32095e-03
       O -1.05205e-03 -1.19189e-03 -1.90389e-04
       H  5.28170e-03  3.32181e-05 -5.70203e-03
       H  5.25779e-04 -1.02075e-03  1.02671e-04
       O  3.13258e-04 -6.40716e-04  7.58462e-04
       H -2.26621e-03  1.54692e-03 -4.07886e-03
       H -3.00764e-04  2.18549e-03 -1.88976e-03
       O  1.57988e-03 -7.94391e-04 -1.49031e-04
       H -4.83566e-04 -4.03301e-03 -5.17612e-04
       H  4.35498e-04 -1.63440e-03  9.69409e-04
       O -7.53313e-04 -4.82947e-04  1.05576e-03
       H -5.34740e-03  5.33797e-03 -6.53844e-03
       H -2.56053e-03  1.87850e-03 -7.93917e-03
       O  1.60085e-03  5.59656e-04  1.62886e-04
       H -9.72693e-04 -8.22453e-04 -4.01647e-04
       H  4.05918e-04 -9.30132e-04  4.88011e-03
       O -5.01829e-04  4.23848e-04 -4.05991e-04
       H  1.75341e-03  1.69672e-03  1.11686e-03
       H  1.73909e-03  2.69355e-03 -2.86667e-03
       O -1.21686e-04  9.91589e-04  1.07153e-05
       H -4.69487e-03  5.15540e-03 -3.78845e-03
       H -1.61389e-03  1.97700e-04 -1.69288e-03
       O  1.77980e-03  1.52379e-04  4.54843e-04
       H -9.28344e-04  9.27969e-04  1.27165e-03
       H  4.41440e-03 -4.18280e-03 -9.02516e-03
       O  8.54906e-04 -3.08976e-04  7.41944e-05
       H  1.09560e-03 -3.41541e-04  1.60155e-04
       H -1.90350e-03  5.10815e-03  7.51802e-04
       O  3.80906e-04  1.33857e-03 -1.39126e-03
       H  3.92113e-03 -3.43980e-03  2.27924e-03
       H -4.29524e-03  2.56753e-03 -1.59927e-03
       O  1.98793e-03 -5.95580e-04 -1.10499e-04
       H  2.07002e-03 -4.26895e-04 -3.15583e-04
       H -2.16674e-05 -2.32193e-03  2.69429e-03
       O  6.08961e-04 -4.18536e-04 -1.19594e-03
       H -7.29936e-03 -2.20613e-03  2.91348e-03
       H  3.35551e-05  4.52352e-04 -6.06695e-03
       O -2.32740e-03  2.13723e-04 -2.44761e-04
       H  1.05281e-03  2.84211e-04  1.10672e-03
       H -6.94189e-03  7.61114e-03  2.76354e-03
       O -5.31524e-05  1.76529e-03  1.66128e-04
       H  1.10773e-03 -1.03932e-03 -4.51767e-03
       H -7.75435e-04 -1.91636e-04 -1.83806e-03
       O  4.61897e-04 -1.69860e-03  2.19647e-03
       H -2.03602e-03  2.43751e-03  9.05409e-03
       H -1.35380e-03 -2.66045e-03 -1.28131e-03
       O -3.71292e-04  4.35455e-04 -1.94417e-03
       H  1.34076e-03 -1.68204e-03 -1.53883e-03
       H -1.05291e-03 -1.09925e-03 -8.93986e-04
       O -3.16945e-04 -2.37155e-03  9.46612e-04
       H -5.57601e-03  2.21458e-03  3.08422e-03
       H -3.31591e-03  2.14025e-03 -4.88604e-03
       O -1.98116e-03 -4.06574e-04  1.84169e-04
       H -6.42870e-04  3.79030e-03  6.91537e-03
       H  2.86851e-03  7.73365e-04 -1.43168e-03
       O -1.53538e-03 -7.80149e-04 -4.57293e-04
       H -3.63462e-03  1.31773e-03 -1.85357e-03
       H  1.26904e-03  8.29088e-03  2.14540e-03
       O  8.51698e-04  1.09746e-03 -4.89169e-07
       H -1.54430e-03  1.84234e-03 -2.73913e-04
       H  3.22522e-03 -1.39821e-03  9.61236e-04
       O  3.93085e-04 -1.84860e-04 -6.37479e-04
       H -7.67588e-04  1.33349e-03 -1.02669e-04
       H -3.34324e-03 -1.10307e-03  2.71379e-03
       O  9.07149e-04  9.66568e-04 -7.71942e-04
       H  2.41178e-03  1.69708e-03  4.52604e-03
       H -3.76429e-03  1.94629e-03  5.92388e-03
       O -2.99047e-04 -9.26513e-05  9.96230e-04
       H -1.48124e-03 -1.94590e-06  6.82455e-03
       H -2.23065e-03 -2.83993e-03 -3.67744e-03
       O -4.67038e-04  9.51846e-04  8.09570e-04
       H -4.46749e-03 -2.36314e-03 -2.41906e-03
       H -3.06604e-03  4.32208e-03  3.04178e-03
       O  1.07131e-04 -8.89323e-05 -6.31548e-05
       H  1.99377e-03 -2.06919e-03 -3.70567e-04
       H -4.24036e-03  1.59455e-03  2.97573e-03
       O  1.24015e-03  8.35513e-04  9.03410e-04
       H  2.16410e-03  7.02175e-04 -1.19728e-03
       H -2.44033e-03 -5.45463e-03 -2.58029e-03
       O  6.76734e-04 -2.09625e-03 -1.15564e-04
       H -1.35395e-03 -7.91210e-04 -3.34947e-03
       H -4.64215e-04  2.55378e-03 -2.81944e-03
       O -3.81502e-05  1.26233e-03  6.70837e-06
       H -2.41858e-03 -5.58005e-04 -3.09690e-03
       H -7.51033e-04 -4.64551e-03 -2.59314e-03
       O -1.01070e-03  5.37124e-04  6.04250e-04
       H  3.75822e-03 -1.79186e-03  2.62360e-04
       H -2.50316e-03 -2.47972e-03 -8.13258e-03
       O -4.59452e-04 -1.05861e-03  4.81427e-04
       H  2.10286e-03  2.58270e-03 -3.90298e-03
       H -2.33000e-03  1.77814e-03 -1.38694e-03
       O  1.89426e-03 -9.67737e-04  9.14256e-04
       H  7.46722e-04 -4.08446e-04  2.47409e-03
       H -2.60516e-03  3.78725e-03  2.21305e-03
       O -4.83128e-04 -5.93137e-04  1.13458e-03
       H  1.06437e-03 -3.71611e-03 -2.65812e-04
       H -4.83031e-03 -2.88147e-03  5.07619e-03
       O  1.67083e-04  8.48573e-04  6.07693e-04
       H  1.64828e-03 -8.45468e-04 -2.05281e-03
       H -4.69600e-03 -1.43342e-03 -2.30736e-03
       O -9.21805e-04  1.70067e-03 -9.12213e-04
       H -6.25949e-03  2.70577e-03 -2.04754e-03
       H -5.01264e-03  4.22964e-03  2.60440e-04
       O  1.71391e-03  4.93521e-04  1.70248e-03
       H -8.34970e-04 -5.75070e-03  2.40189e-03
       H  1.38045e-03 -3.23911e-03 -1.18891e-03
       O -3.93294e-04 -6.41454e-04  3.65890e-04
       H  1.87158e-03 -3.60766e-03 -2.93824e-03
       H -3.56585e-04 -5.70677e-03  5.61308e-04
       O  5.07234e-04  6.49003e-04 -3.98162e-04
       H  6.83103e-03  6.43256e-03  9.45959e-04
       H -2.87294e-04  4.66429e-03 -1.43058e-03
       O  3.19480e-04  2.23323e-04  1.94966e-05
       H -6.40031e-04 -2.53310e-03 -4.82616e-03
       H  1.01794e-03  4.20560e-03 -3.89644e-03
       O  1.13297e-05 -9.06710e-04 -9.25214e-04
       H  1.87419e-03 -3.29463e-03  5.96287e-03
       H  2.06581e-03 -4.92849e-03 -3.62085e-03
       O  4.42876e-04  1.35474e-03 -1.71874e-04
       H -2.24928e-03  5.36079e-03 -2.16527e-03
       H  1.33013e-03 -5.49373e-03 -1.97503e-03
       O -4.29396e-04 -1.16765e-03  5.18213e-04
       H -4.47658e-03  2.99972e-03 -1.09067e-03
       H  5.29459e-03  2.46584e-05 -6.01627e-03
       O -1.50978e-04 -1.10717e-03  3.77122e-05
       H  6.29043e-03  4.85700e-03 -1.61539e-03
       H -7.04735e-03 -1.02249e-03  1.13081e-03
       O  1.01000e-04 -1.84896e-03 -9.00891e-04
       H -1.25005e-02  3.27184e-04 -4.22080e-03
       H  1.06357e-03 -9.71351e-04  2.07548e-03
       O -6.03945e-04  4.70106e-04 -1.62706e-04
       H  1.64940e-03 -8.24367e-04 -1.06296e-04
       H  1.06909e-03  8.41017e-04  2.90218e-03
       O -1.07762e-03  5.21707e-04 -3.12621e-04
       H  3.50654e-03  7.53981e-03 -1.21184e-03
       H -5.96238e-03 -4.04245e-03  6.01137e-03
       O -2.32818e-03 -1.45027e-03 -1.54034e-03
       H -8.36422e-04 -3.03529e-03  2.81656e-03
       H  4.04127e-03 -7.95914e-03  4.34217e-03
       O -7.93710e-04 -6.33302e-04 -6.56430e-04
       H  4.34920e-03 -9.18948e-04  5.75451e-04
       H -6.94125e-05  1.19632e-03  4.50209e-03
       O -5.63201e-05  7.11517e-04 -1.48888e-03
       H -2.68461e-03 -1.75105e-03  8.12569e-05
       H -4.32964e-03  3.70596e-03 -4.30950e-04
       O  1.69151e-03 -2.27989e-04  1.05717e-03
       H  3.17880e-03  2.62703e-03  6.03942e-04
       H -3.32352e-03 -1.00113e-02  1.17350e-04
       O -1.25739e-03 -4.31530e-04 -1.19883e-04
       H -2.89701e-03 -3.67721e-03  3.87266e-04
       H  9.81812e-03  1.52589e-04  2.93280e-03
       O -3.75786e-04 -4.66339e-04  5.08424e-04
       H  1.62720e-03 -5.40380e-03 -6.60338e-03
       H  3.77583e-04  5.62151e-04 -1.29194e-03
       O  1.01142e-03  9.17596e-04  2.73538e-04
       H  2.09787e-03 -4.64804e-04 -5.26147e-04
       H  1.81932e-03  1.34461e-03 -4.09552e-04
       O  3.98882e-04 -5.78450e-04 -2.26016e-04
       H  5.37198e-04  2.64830e-03 -6.31868e-03
       H -2.49593e-03 -6.51295e-03 -3.74014e-03
192
# CELL(abcABC):   16.99620    29.43815    27.67315    90.00000    90.00000    90.00000  Step:          10  Bead:       7 velocities{atomic_unit}  cell{atomic_unit}
       O  2.59918e-04  2.04637e-05  1.12114e-03
       H -5.37240e-03  1.40987e-04  1.33462e-03
       H  1.75863e-03 -1.94830e-03 -5.48789e-03
       O -2.67067e-04 -9.04981e-04  6.36500e-04
       H -1.65475e-03 -6.35317e-04 -4.00243e-04
       H -9.31950e-04 -4.10630e-03 -1.71731e-03
       O -2.12275e-04 -8.29436e-04  2.04696e-03
       H -5.39979e-04 -1.23308e-03  3.94934e-03
       H -6.58896e-03 -1.95921e-03  2.60216e-04
       O -8.35088e-04  2.31823e-04 -4.70756e-04
       H  1.27039e-03 -6.44147e-03  9.95087e-04
       H -3.15480e-03  6.31888e-05  2.06630e-03
       O  1.33173e-03  2.03393e-04  8.77269e-04
       H -9.67698e-04 -2.92173e-03 -5.96578e-04
       H  3.14422e-03 -5.98452e-04 -8.91906e-03
       O  5.89571e-04 -4.78425e-04 -8.15370e-04
       H  2.70964e-03  1.96185e-03  2.57507e-03
       H  3.19337e-03 -3.65571e-03  1.36222e-03
       O  5.29137e-04 -1.15855e-04 -3.65998e-04
       H -4.06627e-04 -4.57096e-03  3.24933e-03
       H  5.97001e-04 -4.05657e-03 -3.04523e-03
       O -7.03923e-05  1.84068e-04 -6.15473e-04
       H -1.00654e-03  2.07198e-04 -6.60473e-03
       H  3.58203e-04 -2.95091e-03  3.34182e-03
       O -2.51720e-04 -4.74687e-04  4.43848e-04
       H -2.40198e-03 -1.72124e-03  7.03438e-04
       H -1.25774e-03  1.65700e-03  2.99602e-04
       O  1.33921e-03  2.76084e-04 -2.86358e-05
       H  4.55280e-03  4.56565e-03  5.92989e-03
       H -2.89766e-03  1.82235e-03  1.56314e-03
       O -3.37388e-05  6.03598e-05 -2.61578e-04
       H -9.96047e-04 -3.83539e-03  7.20792e-04
       H  1.44665e-03 -9.38419e-04 -5.28602e-03
       O  1.37841e-03  7.75937e-04 -1.91305e-03
       H  5.60182e-03  4.87967e-04 -1.03793e-03
       H -2.87147e-03 -2.55666e-04 -2.67660e-03
       O -5.75768e-04  3.97125e-04  6.65458e-04
       H  2.51836e-03 -1.52624e-03 -5.52095e-03
       H  2.45463e-03  2.04685e-03  7.36507e-03
       O  1.23853e-03  4.76298e-04  2.35024e-04
       H -1.47813e-03 -3.25465e-03  6.34455e-03
       H  2.50406e-03 -2.77358e-03 -1.22521e-03
       O -8.40674e-04  7.85970e-04  1.18896e-03
       H -5.58123e-03  1.61161e-03  2.92147e-03
       H -2.55882e-03 -3.89870e-03  9.51364e-03
       O -6.13081e-04 -7.92026e-05 -1.87929e-04
       H -6.51566e-03  5.42771e-03 -3.04345e-04
       H  3.39605e-03 -2.89118e-03 -5.72776e-03
       O -5.73366e-04  2.61941e-04  7.69622e-04
       H  6.74621e-04 -3.73799e-03 -3.49947e-03
       H -7.08400e-03 -4.98493e-03  2.54129e-03
       O  8.78936e-04 -1.36411e-03 -4.95404e-04
       H -1.18376e-03  1.80071e-03 -1.92155e-03
       H  4.06873e-03 -1.72106e-04  4.10052e-03
       O  4.42707e-04  7.75004e-04  6.40537e-04
       H  1.66767e-03 -2.00995e-03 -3.42438e-04
       H -1.47889e-03  1.48920e-04  1.96137e-03
       O -1.08254e-03  1.87343e-04  3.22670e-04
       H  9.65251e-04  1.07120e-02 -3.14913e-03
       H -4.59887e-03  2.11613e-03 -1.82734e-03
       O  1.19970e-04  7.68618e-04 -1.52669e-05
       H -2.18989e-03  3.74563e-03  2.44933e-05
       H  7.33988e-04 -4.85797e-03 -6.76524e-04
       O -4.67222e-04  6.28183e-04 -2.60861e-04
       H  4.42051e-03  2.23866e-03  6.79052e-04
       H  4.92634e-03  6.81421e-03  1.74536e-03
       O  3.78575e-04  2.23483e-04  4.14295e-05
       H  7.04497e-03  1.24858e-03 -4.09245e-03
       H  2.17846e-03 -4.49838e-03  3.43825e-03
       O  1.05452e-03 -7.59519e-04 -1.05492e-03
       H -6.14592e-03 -7.64403e-04 -3.49510e-03
       H -4.01693e-03  8.52596e-03 -5.36553e-04
       O  6.98165e-05  1.03745e-04  1.30777e-03
       H -4.26767e-03 -2.84250e-04  1.43701e-03
       H -2.00496e-03 -3.54374e-03  7.66003e-03
       O  5.00501e-04  6.18064e-04 -6.81503e-04
       H  2.15777e-03  2.01958e-03  6.31095e-03
       H  6.21128e-04 -1.69918e-03 -8.05123e-03
       O -1.51291e-03 -1.16020e-03 -1.23019e-03
       H  7.82806e-04  6.27600e-03 -1.85802e-03
       H -3.94137e-03 -2.79795e-03  2.28496e-03
       O  1.22574e-03 -6.15176e-04  1.43676e-03
       H  7.91745e-04 -3.72379e-03 -1.70554e-03
       H  5.90403e-03 -7.68679e-03 -9.62361e-04
       O -6.66263e-04  3.43209e-04  1.83718e-05
       H -4.38963e-04  4.74632e-03 -4.48973e-03
       H  2.23265e-03  2.79605e-03  5.28464e-04
       O  2.84187e-04 -8.79391e-05 -9.62456e-04
       H  3.09075e-03  1.37078e-04 -6.78831e-04
       H -3.97971e-03 -1.05978e-02 -8.24737e-03
       O -1.39045e-03 -3.82440e-04 -3.66187e-04
       H  3.14241e-03 -1.40464e-03 -3.66213e-03
       H  6.37177e-04 -6.28405e-03  2.58563e-03
       O -4.52377e-04  2.28358e-04 -4.73400e-04
       H  3.53844e-03  1.00797e-02  2.00324e-03
       H -3.18768e-03  7.64996e-04  6.24172e-03
       O -3.28874e-04  9.75102e-05  6.29691e-04
       H -8.00804e-04  1.28023e-03  5.06065e-03
       H -3.64608e-03 -3.77381e-04 -4.06319e-03
       O  1.50422e-03 -4.28111e-04  3.88328e-04
       H -1.75745e-03  8.12261e-04  4.89970e-03
       H  1.59825e-03 -1.26622e-03  1.19515e-03
       O  3.32789e-04 -8.52388e-04 -1.14215e-03
       H -4.37988e-03 -1.48087e-03  3.50277e-03
       H  4.17143e-04 -7.57092e-03  4.74217e-04
       O -1.09448e-03  1.31670e-03  6.06516e-04
       H  2.63705e-04  5.72598e-03  5.50706e-03
       H -2.01135e-03 -8.08339e-04 -1.55069e-03
       O -3.67641e-04  7.96958e-04  1.05201e-03
       H -1.83273e-03  1.95178e-03 -3.53895e-03
       H -2.41128e-03 -1.36006e-03  2.13396e-03
       O -5.77487e-04 -1.09855e-03 -1.13587e-04
       H  2.24277e-03  4.81751e-03 -4.08710e-03
       H  2.12740e-04 -9.31090e-04 -1.16392e-03
       O -7.95548e-04 -3.36495e-04  7.96376e-04
       H -2.15686e-03  2.84227e-04  3.50968e-03
       H -1.81162e-03 -6.59084e-04 -1.68466e-03
       O -1.32863e-03 -7.68196e-04 -7.26408e-04
       H  1.55147e-03 -2.06543e-03 -4.52761e-03
       H  3.93935e-03 -1.69025e-03  4.90962e-03
       O  4.80997e-05 -3.56406e-05 -7.58380e-04
       H -4.24153e-03  1.09346e-04  6.73389e-05
       H  4.30259e-03  9.99236e-04  1.60028e-03
       O -9.55131e-05  1.16808e-03  5.07471e-04
       H  6.49399e-04 -4.08983e-03 -9.29805e-04
       H  2.56522e-03  2.85477e-03 -2.20660e-04
       O  1.35947e-03 -1.05029e-03 -9.30743e-04
       H  3.52123e-03 -9.52323e-04 -7.50335e-04
       H -3.69024e-03 -2.49607e-03 -1.65929e-03
       O  1.00289e-04 -2.20428e-04  8.18632e-04
       H -4.63262e-03 -2.23448e-03  5.34616e-04
       H  1.49408e-03 -1.82745e-03 -4.28205e-03
       O -4.01771e-04 -2.86034e-04 -2.52052e-04
       H -1.54832e-03 -4.56979e-04  3.69163e-03
       H -5.43761e-03  6.92643e-03 -2.59425e-03
       O  1.65453e-03 -1.78255e-04  4.50948e-04
       H  1.02853e-03  7.68402e-03 -6.68878e-03
       H  3.44838e-03 -7.56694e-04  1.74963e-03
       O  1.63768e-03 -1.82897e-04  8.30471e-05
       H -3.32515e-03  4.93803e-03  3.53803e-03
       H  1.19645e-03  1.85569e-03 -1.95357e-03
       O -9.74280e-05 -5.25565e-05  7.18200e-04
       H -3.09936e-05 -1.91226e-03  5.03589e-03
       H -2.42000e-03 -6.46885e-03  3.54951e-04
       O -1.54344e-03 -5.50450e-04  5.33799e-04
       H -4.82378e-03  6.05377e-04 -2.66029e-03
       H -1.27000e-03 -1.09945e-03 -4.78918e-03
       O  1.88502e-03 -4.62531e-04  1.78242e-03
       H  1.90910e-03 -3.95972e-03  1.99504e-03
       H -2.49714e-03 -1.30567e-03  6.24977e-03
       O  5.95544e-04 -1.22818e-04  1.28114e-03
       H  2.01458e-03 -6.06653e-03 -3.25779e-03
       H  2.02035e-04  3.06270e-05  2.50693e-03
       O -1.41952e-04  1.37762e-03  5.93409e-04
       H  3.80592e-03 -5.78956e-03 -2.86936e-03
       H  5.90764e-03  2.70184e-04  4.46371e-03
       O  7.31999e-04  8.52117e-04  6.39145e-04
       H  2.71785e-03 -2.33501e-03 -3.19652e-03
       H  1.67163e-03  3.97747e-04  2.69394e-03
       O -8.52016e-04  1.32105e-03  8.54164e-04
       H  4.42953e-03 -4.60781e-03  1.10238e-03
       H  3.33202e-03 -1.09916e-03 -6.93569e-04
       O -1.58273e-03  2.32292e-04  1.02279e-03
       H  1.89462e-03 -1.26930e-03 -3.76077e-03
       H -1.43557e-03  1.12537e-03  2.64278e-03
       O -5.16132e-04  4.11152e-04 -4.92893e-05
       H  2.64124e-03  3.35912e-03  1.60388e-03
       H -1.03360e-03 -3.55149e-03  2.52751e-03
       O  5.48529e-04 -8.92353e-04 -9.14359e-05
       H -3.12720e-03 -1.22506e-03  4.51179e-03
       H -1.95062e-04 -5.22415e-04  1.69992e-03
       O -7.75594e-04 -1.83202e-03  1.56193e-03
       H  1.69305e-03 -1.32735e-03  9.76454e-04
       H  7.85471e-04  2.88753e-03 -8.92795e-04
       O -5.32226e-04 -4.52678e-04 -1.47812e-03
       H -2.54582e-03 -2.80745e-03  1.23580e-03
       H  2.82452e-03 -7.52572e-03 -4.18447e-03
       O  5.97606e-04 -5.17161e-04 -4.51223e-04
       H  7.79013e-05 -1.80306e-03  1.74518e-03
       H  6.86244e-04  2.03272e-04  3.91057e-03
       O  2.82528e-04 -6.37161e-05 -5.99193e-04
       H -1.79814e-03  2.30875e-03 -5.26947e-03
       H -1.77810e-04  2.58048e-03 -5.62403e-04
       O  6.88777e-04 -1.30448e-03  1.34286e-03
       H -9.08981e-04 -2.66256e-03 -3.52018e-03
       H -1.45991e-03  3.24305e-03  5.61649e-03
       O -2.74533e-04 -4.14739e-04  7.78881e-04
       H -1.02921e-03  1.49842e-04  1.33384e-03
       H  1.75051e-03 -2.61963e-03  4.55632e-04
       O  1.09972e-03 -1.93224e-04 -1.29456e-04
       H -1.31576e-03 -3.43807e-03  5.47491e-03
       H -1.98187e-03  2.27949e-03 -1.65188e-03
192
# CELL(abcABC):   16.99620    29.43815    27.67315    90.00000    90.00000    90.00000  Step:          20  Bead:       7 velocities{atomic_unit}  cell{atomic_unit}
       O -5.89977e-04  1.61499e-03  1.42943e-03
       H -4.37470e-03 -1.13447e-03  5.43877e-05
       H  1.10544e-03 -3.71245e-03 -8.52223e-04
       O -3.42830e-04  6.62429e-06 -8.09018e-04
       H -4.57436e-03 -9.83852e-04  1.02860e-03
       H -2.24920e-03  1.44793e-03  3.50828e-03
       O  2.83605e-04  1.37407e-03 -1.67370e-04
       H -4.59581e-03 -2.88575e-03  2.77345e-03
       H  7.18907e-04 -1.67846e-03  1.18382e-03
       O -3.56735e-04 -1.78924e-04  1.84632e-04
       H -3.31758e-03  3.06051e-03  1.26905e-03
       H  3.15550e-03  3.28857e-03 -1.57231e-03
       O -9.42911e-04  3.36064e-05  5.40842e-04
       H  2.79157e-03  1.49485e-03 -1.86737e-03
       H  5.34410e-03  4.65513e-03  5.80235e-03
       O  8.53870e-04  6.02026e-04 -5.69880e-05
       H  9.00852e-04  6.39442e-03  3.29427e-03
       H  4.03697e-03 -8.73475e-04  2.48777e-03
       O -6.39908e-04 -4.34092e-04  2.49704e-03
       H -8.70030e-04  7.10897e-03 -5.17598e-04
       H -5.14310e-03 -6.44456e-03 -2.62609e-03
       O -5.32248e-04  4.92352e-04  8.89476e-04
       H  5.68918e-03  4.37177e-03  1.60624e-03
       H -8.43814e-03  5.08837e-03  1.51378e-03
       O -1.11109e-03  9.28748e-04 -7.01846e-04
       H  4.39307e-03 -3.16650e-04  1.50246e-03
       H  1.21470e-03  6.95120e-04 -1.23348e-03
       O -1.17524e-03 -9.20148e-04  1.67422e-03
       H -2.15685e-03 -7.31297e-03 -7.28722e-04
       H  4.87052e-03 -8.60639e-04 -7.68615e-04
       O -1.52019e-05  4.87286e-04 -1.07165e-03
       H -4.00945e-03 -1.62579e-03  2.66896e-03
       H -1.17816e-03 -5.35392e-03 -2.19731e-03
       O -1.88512e-04  6.13536e-04  6.65766e-05
       H  2.72448e-03  1.29493e-03 -3.56650e-03
       H -4.73829e-03 -1.94417e-03  6.07768e-04
       O  1.11774e-03 -9.55924e-05  9.39074e-05
       H  1.90546e-03  2.07363e-03  2.99650e-03
       H -8.56115e-04  2.88538e-04  1.37199e-03
       O -5.90345e-04  2.27030e-03 -1.57756e-04
       H  2.04946e-03  1.50097e-03 -6.39438e-04
       H -4.00538e-04  2.09188e-03 -1.66053e-03
       O -2.23336e-03 -6.99137e-04  9.35820e-06
       H -2.08189e-05 -2.50035e-03 -1.05489e-03
       H -2.30418e-03 -3.44242e-03 -3.66302e-03
       O  8.73114e-04 -2.24766e-05 -3.14615e-04
       H  1.09594e-03  6.79765e-03  3.58029e-04
       H -2.34635e-03 -5.72181e-04  1.73084e-03
       O -8.90101e-05 -1.84282e-04 -1.02108e-03
       H -7.80153e-04  6.45605e-03  3.46081e-03
       H  6.82329e-03  2.37274e-03 -3.11006e-03
       O -1.05092e-03  1.41243e-04  1.05717e-03
       H  3.97185e-03 -2.68799e-04 -3.71156e-03
       H -6.61002e-03  9.57154e-04 -2.80425e-03
       O -1.48162e-04  1.08878e-03 -8.51739e-06
       H -5.86896e-03  6.22916e-03  2.38959e-03
       H  1.28149e-03 -4.72518e-03  5.60683e-03
       O -5.46903e-04  4.84001e-04  2.25101e-04
       H -1.66901e-03  6.84940e-04  7.10315e-04
       H -3.83500e-03  2.67031e-03  5.46628e-03
       O  6.01297e-04  5.04818e-04 -3.66457e-04
       H -5.51916e-03  4.68456e-03 -4.20397e-03
       H  4.44220e-03  3.34536e-04  2.77560e-03
       O  4.89017e-04 -7.84148e-04  2.44436e-04
       H  5.38312e-04  4.55244e-03  3.93376e-03
       H -6.72939e-03 -2.48863e-03 -2.26799e-03
       O -5.52373e-04  1.20408e-03  1.97125e-03
       H  2.38274e-03  8.45127e-04 -3.59570e-04
       H -7.72636e-04  8.95222e-04 -2.56711e-04
       O -1.17466e-03 -2.33392e-04  1.12866e-03
       H -2.06588e-04 -1.63502e-03  1.66929e-04
       H  2.47691e-03 -3.00593e-04 -1.40167e-03
       O  6.00681e-04 -1.11202e-03 -8.02594e-04
       H  3.14220e-03 -3.30203e-04  5.75383e-03
       H  3.68251e-04  1.59803e-03 -2.11103e-03
       O -1.42188e-03 -1.03421e-03 -4.11213e-04
       H -2.47797e-03  3.69759e-04  2.88045e-03
       H  1.94766e-03 -8.97797e-04  4.12772e-03
       O  2.44808e-04 -9.18186e-04  4.05411e-04
       H  1.92040e-03 -1.86675e-03  8.19963e-04
       H -4.57182e-03  4.16964e-03 -7.45894e-04
       O -1.01001e-03 -1.72729e-04 -1.38963e-03
       H  9.69527e-04 -4.46225e-03  2.71664e-03
       H  8.70906e-04 -5.38465e-04  1.69164e-03
       O  7.60377e-04 -3.12228e-04 -1.07514e-03
       H  4.53558e-03 -6.98388e-03 -2.96808e-03
       H  2.94311e-03 -1.14235e-03  1.42278e-03
       O  1.63354e-04  7.53221e-04  4.59312e-04
       H -1.15218e-03  4.71920e-04  3.46340e-03
       H  8.60879e-04 -4.31392e-03 -3.49067e-03
       O  1.55296e-03 -1.37576e-05 -8.28375e-04
       H -5.93386e-03  4.48680e-03 -4.82290e-04
       H  6.66673e-03  8.42478e-07 -2.85942e-03
       O -2.86886e-04  7.81008e-04 -9.78109e-04
       H  3.06312e-03  2.55155e-03  1.56712e-03
       H  2.00876e-03 -5.47919e-04 -1.27242e-03
       O  1.54670e-03 -4.01465e-04 -3.71665e-04
       H  3.65261e-04 -2.93098e-03  4.83251e-03
       H  1.65084e-03  1.03126e-03 -2.71011e-03
       O -7.78533e-04 -5.59569e-04 -8.88688e-04
       H  1.82059e-03 -1.50198e-03  5.38714e-03
       H -5.24925e-04  1.32073e-03  7.06065e-04
       O  8.95913e-04  1.71402e-04 -9.35146e-04
       H  4.44702e-03 -2.57124e-03  1.77258e-03
       H  3.40306e-03 -7.10284e-03 -2.90398e-03
       O -2.40812e-04 -1.63923e-04 -1.10240e-04
       H  2.04888e-03 -1.11356e-03 -2.19311e-03
       H  4.25351e-03 -1.89559e-03 -2.28475e-03
       O -1.07164e-03  1.52047e-04 -6.80607e-04
       H -1.27765e-03  1.49599e-03 -2.90697e-03
       H -1.63591e-03 -6.55520e-03 -4.42669e-03
       O  7.46229e-04 -3.80153e-04  2.28979e-03
       H  3.71463e-03 -2.41798e-03 -3.09423e-03
       H -7.86233e-05 -2.90244e-05 -6.31689e-04
       O -1.41981e-04 -1.48461e-03 -7.30774e-05
       H  1.30269e-03 -2.93130e-03  1.15122e-03
       H  5.77520e-03  3.38349e-03  5.19399e-03
       O  1.07582e-03  2.55454e-04  7.53537e-04
       H -1.52951e-03 -2.95338e-03  3.69158e-03
       H  2.03671e-03 -7.81032e-04 -1.49911e-03
       O  9.25565e-04  2.24977e-04  1.67848e-04
       H -4.46968e-03  4.47860e-03  4.89019e-03
       H -2.78829e-03  1.06173e-03  5.26130e-03
       O -7.97550e-04  1.10320e-03 -7.68161e-04
       H -2.43218e-03 -1.21800e-03  1.75278e-03
       H  3.00332e-03  5.56494e-04 -6.02453e-03
       O  1.80691e-03  1.58145e-03  1.16884e-03
       H  2.78273e-03  3.54772e-03 -1.16942e-03
       H -1.69657e-03  2.14944e-03 -5.66642e-04
       O  1.14449e-03 -3.47478e-04  4.82763e-04
       H -4.69407e-03  1.94521e-03  3.95531e-03
       H  3.00803e-03  8.20993e-04 -3.38686e-03
       O  3.55297e-05 -1.22497e-04 -1.92528e-03
       H -2.35920e-03 -1.12216e-03  1.89343e-03
       H  2.82766e-03  2.36098e-03 -3.56379e-03
       O  6.95737e-04 -8.43688e-04 -1.08192e-03
       H  3.11084e-03 -1.81904e-03 -3.33149e-03
       H -4.51324e-03  4.31689e-03 -2.44406e-03
       O -9.98417e-04  4.34215e-04  2.87488e-04
       H  2.59526e-03  2.74392e-03 -2.66065e-04
       H  4.70732e-04  1.78993e-03  4.29746e-03
       O  5.17215e-04 -9.08455e-04 -6.17580e-04
       H  3.99254e-04 -1.47129e-03  8.15987e-04
       H  2.61673e-03 -2.71925e-03 -6.96370e-03
       O  5.08847e-04  1.08679e-04  1.63464e-04
       H -2.24377e-03  2.61926e-03 -2.24778e-03
       H -6.60981e-03  8.08781e-03 -1.25523e-03
       O -1.04915e-03 -2.08763e-04 -1.20537e-05
       H -3.68737e-04 -5.67116e-03 -3.19173e-03
       H -5.82473e-03 -8.72005e-04 -5.63377e-03
       O  6.84001e-04  6.29335e-04 -2.64661e-04
       H  5.85344e-03  3.88117e-03  5.19964e-03
       H -8.91350e-03  5.67649e-03  6.55133e-03
       O  8.89264e-04 -6.36552e-04  1.47311e-03
       H  2.95741e-03 -4.88690e-04  6.56979e-03
       H -8.84746e-03  2.15709e-04  2.73846e-03
       O -1.60704e-03 -1.48600e-04  1.93714e-03
       H  4.20158e-04  1.12335e-03  3.12811e-03
       H -2.18581e-04  2.28999e-03  3.36406e-04
       O  1.44558e-04  1.49122e-03  7.46714e-04
       H  2.44682e-03 -3.74923e-03  1.85172e-03
       H -1.52427e-03 -3.67043e-03  1.27185e-03
       O  1.01172e-03 -9.43363e-04  4.60059e-04
       H -2.52419e-04 -4.86119e-03  1.64621e-03
       H  7.75734e-04 -1.88034e-03  2.06284e-03
       O -2.37741e-04 -1.04570e-03  1.45951e-03
       H  2.02540e-03 -3.11386e-03 -3.55817e-03
       H  2.55230e-05 -2.07561e-03  2.70126e-03
       O -7.90287e-04  6.71616e-05  1.59418e-03
       H  3.42525e-03 -3.50695e-04  1.77840e-03
       H -3.74997e-03 -1.14340e-03  6.69452e-03
       O  7.39984e-06 -2.23418e-03  8.09931e-04
       H -6.42127e-04  1.71722e-03  3.33764e-04
       H  1.71181e-03  2.98559e-04 -4.14296e-03
       O -8.45917e-04  9.69196e-04  4.97833e-04
       H  1.75769e-03 -2.04835e-03 -1.56294e-04
       H -4.06904e-04  2.19645e-03  2.13812e-03
       O -5.24267e-05 -7.52070e-04 -1.19473e-03
       H  1.46638e-03 -7.84554e-04  9.61143e-03
       H -4.50061e-03 -1.02263e-03 -4.77870e-03
       O -1.02114e-03  1.16965e-05 -3.47311e-05
       H  4.44973e-03 -7.15286e-03 -4.22278e-03
       H  8.04577e-03  3.61145e-03  4.69274e-03
       O -3.29935e-04 -1.01639e-03  4.32847e-04
       H -2.15692e-03 -1.93047e-03  1.77763e-03
       H -1.18548e-03  7.78280e-03  2.39989e-03
       O -6.76381e-04  6.66628e-04 -1.58361e-03
       H  1.84572e-03 -1.98386e-03 -1.48552e-03
       H  4.74950e-03 -4.47174e-03 -4.65155e-03
       O  2.41673e-03  7.28337e-04  5.22176e-05
       H -3.45822e-04  1.02069e-02  4.73958e-03
       H -3.66625e-03  5.52527e-03  1.37791e-03
192
# CELL(abcABC):   16.99620    29.43815    27.67315    90.00000    90.00000    90.00000  Step:          30  Bead:       7 velocities{atomic_unit}  cell{atomic_unit}
       O -6.36614e-04 -1.19452e-03  1.55716e-03
       H -4.09496e-03  1.45008e-03 -1.67195e-03
       H -2.92871e-03 -2.23758e-03 -5.81688e-03
       O  4.58451e-04 -5.42979e-04 -9.47197e-04
       H -3.97679e-03  3.97824e-03 -6.95124e-03
       H -2.12298e-03  4.10993e-03 -8.76020e-04
       O -3.94367e-04  1.64560e-03 -1.82887e-03
       H -5.53550e-03 -2.27052e-03  7.24368e-03
       H  4.50945e-03 -6.79664e-03 -2.17317e-03
       O -8.10851e-04  2.14305e-04 -7.54830e-05
       H  2.89237e-03  1.47207e-04 -2.85894e-03
       H -3.90029e-03  1.64175e-03  3.10194e-03
       O  4.87101e-04 -6.84326e-04  5.28442e-04
       H -8.57966e-04  1.37272e-03 -1.08026e-03
       H  6.01025e-03  4.23102e-04 -1.10753e-03
       O -8.06883e-04  3.25264e-04 -2.47604e-04
       H  3.30884e-03  3.13905e-03 -1.10196e-03
       H  5.56209e-03  1.51851e-03 -3.57048e-03
       O  3.10395e-04  1.40057e-03  5.63083e-04
       H -1.58181e-03  4.27422e-03  5.82819e-03
       H -4.62618e-04  1.27448e-04 -3.42921e-03
       O -2.69377e-04 -1.45778e-03  1.85278e-04
       H  2.42185e-03  1.67333e-03 -4.08348e-03
       H  3.62833e-04  5.50487e-03  5.78608e-03
       O -1.26540e-03 -2.19327e-04 -4.61797e-04
       H  1.50841e-03  1.23816e-03 -1.26436e-03
       H -2.23347e-03  3.24553e-03 -8.23275e-04
       O  1.57427e-03  8.67170e-04  1.01412e-04
       H  5.99396e-03 -1.83980e-03 -2.45508e-03
       H  4.08737e-04 -1.56558e-03  3.02841e-04
       O -1.41162e-04  1.38575e-04  1.66672e-03
       H -9.49029e-04  1.91792e-03 -7.11898e-04
       H  5.75311e-03 -3.91539e-03  8.83063e-04
       O -1.08502e-03 -6.75306e-04  5.12114e-04
       H -1.50874e-03  3.62633e-03 -1.37354e-03