192
# CELL(abcABC):   16.99620    29.43815    27.67315    90.00000    90.00000    90.00000  Step:           0  Bead:      10 velocities{atomic_unit}  cell{atomic_unit}
       O  1.83783e-03  9.30287e-05 -1.76437e-04
       H  8.04680e-04  2.49855e-03  1.69063e-04
       H -3.82111e-03  2.93339e-03 -8.26777e-04
       O -1.69537e-03  3.90084e-04  3.89308e-04
       H  7.23898e-03 -4.96535e-03  2.23417e-03
       H  1.77032e-03  2.90287e-03 -2.59366e-03
       O -8.72571e-04 -2.25871e-03  9.13740e-04
       H  4.14390e-03  6.59619e-04  5.54858e-03
       H  2.43733e-04  4.69303e-03 -3.85135e-04
       O  1.30026e-03  1.04536e-03 -6.93606e-04
       H  9.17832e-03  5.64945e-03  1.51980e-03
       H -2.12194e-03  4.85815e-05 -3.22699e-03
       O  8.27223e-04 -1.56142e-04 -1.49402e-04
       H  5.58713e-03 -2.62905e-03  4.66472e-03
       H  5.42378e-05  1.82505e-04 -3.73168e-03
       O  1.95671e-03  3.47887e-04  2.17279e-03
       H -1.85762e-03  7.62104e-04  3.80099e-03
       H  1.19538e-03  9.46123e-04 -3.59938e-03
       O -4.43397e-04  1.24950e-03 -5.62099e-04
       H  2.78261e-03  8.87139e-04 -1.68198e-03
       H -2.02530e-03 -6.09048e-03  2.02972e-04
       O -8.57194e-04  4.23521e-04 -3.15678e-05
       H -8.90372e-04 -2.66131e-03  1.96888e-03
       H  7.54519e-03  1.36638e-03  2.94885e-03
       O -1.18362e-03  1.80298e-03 -9.06796e-04
       H -5.96065e-03 -2.53596e-03  4.19673e-03
       H -6.18161e-03  2.82164e-04 -2.31969e-03
       O -2.64291e-04  1.82159e-03  6.59927e-04
       H  3.80645e-03 -1.93433e-04  2.44279e-03
       H -2.35637e-03  5.90210e-03 -5.25801e-03
       O  1.48231e-03  3.04682e-04  1.05849e-03
       H -3.09123e-03 -2.40555e-03 -1.50458e-03
       H  2.40990e-03  3.91551e-03 -2.86408e-03
       O  3.58180e-04  5.69238e-04 -1.23271e-03
       H  1.50878e-03 -2.58123e-03 -3.05951e-03
       H  1.13293e-03 -3.77587e-04  2.34069e-03
       O  1.04961e-03 -1.57780e-04  1.20735e-03
       H  3.99469e-03  3.94900e-03 -4.39734e-03
       H  3.90990e-03 -2.03093e-04 -8.61870e-04
       O  1.50500e-03  2.18603e-04 -9.19203e-04
       H -2.47678e-03  3.13445e-03 -2.42136e-03
       H  1.93586e-03 -8.66831e-04  9.02812e-04
       O  3.47094e-04 -2.24441e-04  8.04920e-04
       H  4.47164e-03  2.27635e-03  3.09135e-03
       H -1.34015e-04 -2.57128e-03  5.51016e-03
       O -9.93957e-04 -4.24077e-04  1.13998e-03
       H  4.91235e-03  2.23894e-03  5.42110e-04
       H  1.45404e-03 -1.95660e-05 -2.95568e-03
       O -2.18199e-04  1.20943e-03 -4.11485e-04
       H  2.59796e-03  2.99210e-04  2.06116e-03
       H -2.85447e-03  1.60603e-03 -2.37796e-03
       O -1.25148e-03 -2.35066e-03  4.50436e-04
       H  2.18053e-03  4.14810e-03 -6.45572e-04
       H -1.87535e-03 -1.66052e-03  5.78736e-03
       O  3.70000e-04 -1.28258e-03  1.69909e-03
       H  9.78637e-04  1.70543e-03  9.00982e-03
       H  4.28833e-03 -6.78771e-04  5.11181e-03
       O  7.67123e-04  5.79721e-04 -3.07375e-04
       H  9.78990e-04 -4.61652e-04 -4.38038e-03
       H -1.24540e-03 -3.74754e-03  2.55037e-03
       O  2.46726e-04 -2.48138e-03  1.25989e-03
       H -1.69773e-03 -4.45505e-03  1.20183e-03
       H -1.05938e-03 -5.62070e-04  1.49608e-03
       O -1.63777e-03  1.97808e-03  2.10613e-04
       H -3.24626e-03 -1.18981e-03 -8.98701e-04
       H -4.57027e-03 -6.85872e-04 -4.39789e-04
       O  4.67178e-04  1.05943e-03 -3.62339e-04
       H -6.47554e-04  8.33527e-04 -1.90404e-03
       H  2.25365e-03 -3.91971e-03 -5.46923e-03
       O -1.82872e-03 -2.10973e-04 -1.62190e-03
       H  9.18549e-04  4.93348e-03  3.82805e-03
       H  2.06902e-03 -2.21600e-03 -2.18594e-03
       O -7.22665e-04  7.70773e-04  3.75196e-04
       H -1.99568e-03  1.22696e-03 -1.08776e-03
       H -2.58951e-04 -2.72960e-03  4.57244e-03
       O  1.55832e-04  2.57207e-05 -1.09139e-03
       H  2.95809e-03  4.64190e-03  2.11742e-03
       H -6.08878e-03 -4.50724e-03  1.07187e-03
       O -5.69856e-04  1.84456e-04 -1.07409e-03
       H -1.54272e-03 -8.67975e-03 -1.10368e-03
       H -6.77063e-03 -2.62965e-03  5.59264e-03
       O  1.02994e-03  9.49298e-05 -1.16581e-03
       H  3.39971e-03 -5.46606e-03 -2.24488e-03
       H -6.38230e-04 -2.48547e-03  5.29535e-03
       O -9.99024e-04  1.89138e-04  6.23507e-04
       H  5.51912e-03 -1.39190e-03 -4.44963e-04
       H -3.42957e-03 -9.17164e-03  1.11038e-05
       O  1.21853e-03 -6.81491e-04 -8.02421e-04
       H  2.61618e-03 -2.36760e-03 -4.44872e-03
       H  3.56013e-03 -3.03874e-03  1.95323e-03
       O -9.65900e-04  1.10275e-03  8.98923e-04
       H  2.66188e-03  5.16391e-03  1.30865e-03
       H  2.17856e-03 -2.01827e-03 -3.10772e-03
       O  1.23381e-03 -5.68083e-05  4.35784e-04
       H -7.84926e-03  6.81636e-04  6.55192e-03
       H  3.61828e-03  2.88232e-03  1.44630e-03
       O  1.94762e-04  1.63968e-03  5.24638e-04
       H  2.02013e-03 -1.67297e-03 -2.53235e-04
       H -9.27913e-04  1.27174e-03  1.06634e-03
       O  3.90707e-05  7.69766e-04  1.37792e-03
       H -5.04956e-03 -5.90953e-03 -2.52306e-04
       H -4.94523e-03  1.37690e-03 -4.46931e-03
       O -9.09363e-05 -1.65708e-03 -2.46906e-05
       H  2.99254e-03 -1.19486e-03  5.78748e-04
       H  2.56224e-03 -1.41061e-03 -2.82433e-03
       O  2.29083e-03 -3.00122e-04 -1.93844e-03
       H -4.09818e-03 -2.91004e-04 -3.47686e-03
       H  5.06548e-03 -6.89025e-03 -4.24653e-03
       O -1.47462e-03 -8.03476e-04 -2.49453e-04
       H -6.58766e-03 -6.84709e-04 -6.35327e-03
       H  2.95468e-03  8.11486e-03 -3.95393e-03
       O -1.03207e-03  1.03673e-03 -3.04618e-04
       H  5.68396e-04  7.18145e-03  3.64584e-04
       H -7.97144e-03 -3.49798e-03  8.63844e-03
       O  1.27609e-03 -6.12585e-04  8.17898e-04
       H  2.66105e-03  2.08492e-03 -2.13792e-04
       H  3.96899e-03  1.65137e-03 -1.23029e-03
       O -2.02420e-03  1.18198e-04 -9.36691e-04
       H -1.83110e-03 -8.77485e-04 -7.17982e-03
       H -6.46699e-03 -2.78961e-03 -9.05362e-04
       O -2.21471e-03 -4.64940e-04 -1.77348e-04
       H  7.01292e-03 -1.11093e-03 -2.41317e-03
       H  2.14340e-03 -7.32675e-03  2.71036e-04
       O -1.17002e-04 -1.78245e-03 -6.30040e-04
       H  7.01346e-04  3.41240e-03  1.48177e-03
       H  1.32876e-03  3.45104e-04  5.95374e-03
       O -3.06235e-04  2.61211e-03  1.15962e-04
       H -4.00589e-03  1.23196e-03  5.63137e-03
       H  2.79204e-03  2.78012e-03 -1.84712e-03
       O -5.58937e-04  1.00222e-03  4.57096e-04
       H -1.20238e-03  4.91182e-04 -1.42570e-03
       H  1.68009e-03 -2.01712e-03  3.03088e-04
       O  3.68889e-04  2.56083e-04  8.65558e-04
       H  2.03409e-03  1.24310e-03  2.81830e-03
       H -5.78799e-03 -8.71373e-04  1.13064e-03
       O -7.27028e-04 -6.58728e-04 -1.20749e-03
       H -3.31884e-04  8.08060e-04 -2.05638e-03
       H  1.56159e-04 -3.26741e-03  5.36121e-03
       O  2.84676e-04 -8.60380e-05  1.00877e-03
       H -5.36470e-03  7.73075e-03  5.35588e-03
       H  9.98837e-05 -4.59376e-03  3.43840e-03
       O  1.34520e-03 -7.52528e-04 -9.47874e-05
       H -1.98994e-03  6.00710e-03  4.74844e-04
       H  2.47680e-03 -7.09131e-04  4.52574e-03
       O -2.92310e-04  6.95169e-04 -5.30573e-04
       H  2.81701e-04  1.42986e-03 -1.27369e-03
       H -7.35391e-04 -2.38069e-03  2.40998e-03
       O -1.50132e-04 -8.43736e-04  1.26148e-03
       H  2.52929e-03 -7.05838e-04 -2.07727e-03
       H  1.96127e-03 -2.11949e-03 -1.13528e-03
       O  5.57987e-04 -1.67159e-04 -5.87491e-04
       H  3.29357e-03 -2.26927e-03  7.17754e-03
       H  2.68378e-03  5.27199e-03  1.21010e-03
       O  4.59883e-04 -6.91638e-04 -3.04665e-05
       H -4.52797e-03 -1.45543e-03  7.82947e-03
       H  3.92213e-03  2.78797e-03 -5.79926e-03
       O  1.21053e-03  2.83138e-04  2.02023e-03
       H -6.26233e-03  3.05830e-03  5.23638e-03
       H  1.26500e-03 -1.60832e-03 -5.57027e-04
       O  8.75328e-04 -1.23826e-03  1.36148e-03
       H -3.10409e-03  1.40954e-03 -3.83289e-03
       H -3.40423e-04 -2.88784e-03  2.50620e-05
       O -1.26587e-03  5.14215e-04 -2.85524e-05
       H -6.49898e-03 -6.71982e-04 -6.01371e-04
       H  1.52150e-03  4.26693e-04  9.60364e-04
       O -6.26606e-04  5.17629e-04  5.98664e-04
       H  4.82413e-03  1.94009e-03 -3.36951e-03
       H  2.25804e-03 -2.07485e-03  8.60730e-04
       O -7.35371e-06  3.23326e-04 -3.91687e-04
       H -1.94172e-03  3.93228e-03 -3.55719e-03
       H -4.42417e-04 -4.78478e-03  1.45047e-03
       O  4.24779e-04 -1.65633e-04 -1.99849e-03
       H -2.40316e-03  2.60760e-03 -1.62315e-03
       H  4.80529e-03  1.60744e-03 -3.10237e-05
       O -9.55343e-04  9.97549e-04  3.79286e-04
       H  2.00835e-03 -4.10315e-03  3.86034e-03
       H  6.92704e-03 -3.95514e-03 -5.55525e-03
       O -4.41492e-06 -8.84246e-04 -7.28508e-04
       H  2.89145e-03  5.76210e-04  2.20213e-03
       H  2.22675e-03  3.69530e-03  6.10245e-04
       O  2.76709e-04 -7.28275e-04 -1.33938e-03
       H -7.16572e-03 -9.98905e-03 -1.55264e-03
       H -2.30163e-03  7.91799e-03  1.36976e-03
       O -1.58052e-03 -7.25602e-04  1.06808e-03
       H -1.23749e-03 -4.42337e-03  2.35017e-03
       H -1.04245e-04 -2.32263e-03 -3.29385e-03
       O -1.10948e-03 -3.73097e-04  1.86467e-04
       H -1.16373e-03 -4.10861e-03  4.13202e-03
       H -1.04022e-03 -1.37383e-03 -2.14052e-03
       O -9.00666e-04  4.52694e-04 -3.31432e-04
       H  6.09293e-04  2.13809e-03 -1.89141e-03
       H  1.18375e-03  2.69022e-03 -1.47424e-03
192
# CELL(abcABC):   16.99620    29.43815    27.67315    90.00000    90.00000    90.00000  Step:          10  Bead:      10 velocities{atomic_unit}  cell{atomic_unit}
       O -8.69426e-04 -5.93294e-04 -5.63902e-04
       H -1.03492e-02  6.30333e-03  3.87122e-03
       H -2.02036e-03  1.17654e-03 -6.76931e-03
       O  1.64923e-03 -8.48605e-04  4.54367e-04
       H  5.46670e-04  1.42735e-03  2.02876e-03
       H  7.89513e-03 -5.60396e-03 -5.29472e-04
       O  7.29414e-04 -2.47382e-05 -1.14728e-03
       H  6.05582e-04 -5.29091e-03  1.71481e-03
       H -2.67723e-03  2.74370e-03 -1.96692e-03
       O  1.22463e-06 -4.33931e-05  1.17673e-04
       H -4.50957e-03 -3.05557e-04  2.59874e-04
       H -9.53464e-04  4.00176e-03  2.33244e-03
       O  1.11695e-03  4.58247e-04  1.98294e-04
       H -2.44105e-03  1.06795e-03  1.18427e-03
       H -9.05263e-04  7.06797e-04  3.77046e-03
       O  1.17729e-03 -1.28512e-03 -2.46094e-03
       H -2.12838e-03  5.33195e-03  1.13327e-03
       H  1.19203e-03  2.24382e-03 -1.10581e-03
       O -1.10118e-03  2.62989e-04  3.38603e-04
       H -4.17516e-03 -2.97541e-04  5.01610e-03
       H -3.05414e-03 -8.08217e-03  1.24175e-03
       O -4.86515e-04 -8.54366e-04  1.12260e-03
       H -7.65608e-04 -2.44469e-03  3.39803e-03
       H -1.03189e-03 -8.57194e-04 -4.04143e-03
       O -8.71352e-04 -1.58619e-03  6.80085e-04
       H -4.55605e-04  1.56182e-03  4.03443e-03
       H -1.42898e-03  6.06255e-05  1.20889e-03
       O -2.93825e-04  1.33151e-04  1.22147e-04
       H  2.53083e-03 -1.96842e-03  3.20845e-03
       H  2.73690e-04 -3.51597e-03  2.76121e-03
       O  9.48364e-04  7.38632e-04 -1.65498e-03
       H -4.14625e-03  3.12399e-04 -2.43392e-03
       H -5.49312e-04 -3.49752e-03  3.58070e-03
       O  9.57121e-04  5.06611e-04 -4.80744e-04
       H -5.44161e-04  3.08363e-04  2.79902e-03
       H  4.24823e-04  2.00023e-03 -3.21601e-03
       O -3.49017e-04 -2.06010e-03  4.52272e-04
       H -6.95402e-04 -1.36065e-03  4.02071e-04
       H  1.93408e-03  4.01080e-03 -2.07560e-03
       O -3.59993e-04 -6.29974e-04  1.52616e-03
       H -1.45010e-03  2.37237e-03 -2.54608e-03
       H  1.35559e-03 -3.42153e-03  4.22329e-03
       O -6.46277e-04  1.40294e-03 -4.95977e-04
       H  2.38829e-03 -1.28569e-03  7.00690e-03
       H -3.22351e-03 -4.77934e-03 -2.97355e-03
       O -5.52688e-04 -5.08100e-04 -2.66037e-04
       H -5.32219e-04  3.94288e-03 -3.56213e-03
       H -2.07265e-03  1.31468e-03  5.53438e-03
       O  6.92446e-04  3.73837e-04 -1.26087e-03
       H -3.02618e-03  4.50185e-04 -1.39833e-03
       H  1.54604e-03 -3.77593e-04 -1.88273e-03
       O -9.91171e-04  2.34949e-05  2.29386e-04
       H -6.49079e-04  8.07274e-04 -4.72011e-03
       H -1.82515e-03 -9.32368e-04  5.13730e-03
       O -1.14780e-03  1.27927e-04  6.81194e-04
       H -1.62081e-03 -3.75825e-03  3.51847e-03
       H -7.17166e-04 -2.61618e-03 -2.67058e-03
       O  1.05612e-04 -3.34346e-05  9.18815e-04
       H -2.22808e-03 -3.10928e-03 -5.31468e-03
       H  1.05019e-03  2.52698e-03  4.19812e-03
       O  2.01458e-04  4.11388e-04  5.97251e-04
       H  2.20524e-05 -3.55011e-03 -4.86331e-03
       H  4.34992e-04 -2.49280e-03 -2.82592e-03
       O -1.47120e-03  1.54817e-03 -2.50439e-05
       H  4.04839e-04  4.55189e-03 -1.33892e-03
       H -2.56434e-03 -5.10111e-04 -8.43361e-04
       O -9.39964e-04 -2.72473e-04 -5.05753e-04
       H  4.55538e-03  5.10096e-04  2.24219e-03
       H  2.24740e-03  1.09217e-03 -2.57675e-03
       O -6.92133e-04 -7.86625e-04 -3.80569e-04
       H -4.27625e-03  3.78730e-04  2.74906e-03
       H -2.90770e-03 -1.97276e-03 -1.18931e-03
       O  5.16669e-04  6.82510e-04 -3.43949e-04
       H  1.74502e-03 -4.29867e-03 -1.87162e-03
       H  5.25855e-03  9.18681e-04  4.03559e-04
       O  7.94272e-04 -1.46188e-03  5.76411e-04
       H -8.34368e-04  1.58641e-04 -2.46002e-03
       H -1.14368e-03 -1.26564e-03 -1.65760e-03
       O -8.86169e-04  1.75008e-04  6.04407e-04
       H -5.17406e-03  2.98922e-03 -4.60161e-03
       H -2.87786e-03  7.57060e-03 -1.76366e-03
       O -1.91270e-04  1.33630e-04 -6.89817e-04
       H -4.83918e-03 -3.80512e-03  4.82422e-03
       H -3.25848e-04  5.25154e-03  4.25116e-03
       O -1.84495e-04 -1.13316e-03  7.44181e-04
       H -1.66024e-03  4.79169e-03 -2.00231e-03
       H  2.02697e-03 -1.30662e-03  3.93170e-04
       O  2.21777e-03 -1.89392e-03  1.49527e-03
       H  7.55392e-04  2.15151e-03  4.02150e-03
       H -8.36126e-03 -1.08167e-03  4.08174e-03
       O  9.36206e-04 -8.34300e-04 -3.73824e-04
       H -2.82351e-03 -8.37900e-04 -7.76534e-03
       H  8.66844e-03  1.29528e-03  5.61885e-03
       O  5.43008e-04  5.60927e-04  1.32896e-03
       H  3.52197e-04  3.74625e-03  1.14639e-03
       H  7.12186e-04 -6.07771e-04  2.76096e-04
       O  1.04353e-03 -2.92338e-04 -4.11722e-04
       H -6.71108e-03  2.32660e-03  4.15141e-03
       H -1.67286e-03 -3.67037e-03 -1.20528e-03
       O  1.27831e-04  2.59270e-03 -9.65680e-04
       H  2.11288e-03 -1.59339e-03 -2.34359e-03
       H -9.68646e-04 -3.64291e-03  9.40418e-03
       O  5.73984e-04 -1.00480e-04  4.19796e-04
       H  1.95992e-03  1.45956e-04  4.34723e-03
       H  3.22723e-03  3.99738e-03 -2.68750e-03
       O -1.34079e-04 -4.89826e-04  1.70711e-03
       H  1.04780e-03  2.96494e-03  1.83345e-03
       H -4.79341e-03  8.86005e-03  1.25386e-03
       O  1.01548e-03  1.78009e-03  3.43319e-04
       H -3.07612e-03  1.20800e-04  1.16593e-03
       H -1.88392e-03 -3.28346e-03 -7.16846e-04
       O  1.00719e-03 -1.88799e-04  6.00401e-04
       H  1.38135e-03 -6.34982e-04  1.32971e-03
       H -7.07472e-05  2.41990e-03  4.46974e-03
       O -1.34998e-04 -4.33061e-04  1.59769e-05
       H -2.54998e-03  1.37757e-03  2.69741e-04
       H -6.79065e-03  5.91250e-03  5.41655e-03
       O -2.47094e-04 -7.27009e-04  3.39648e-04
       H -2.35145e-03 -3.25479e-04 -1.49581e-03
       H -2.13690e-03  2.27773e-03 -9.30729e-04
       O -1.51643e-03 -2.13723e-03  7.79643e-04
       H  1.95336e-03 -1.63157e-03  2.87165e-04
       H  3.50530e-04 -1.00519e-03 -3.67374e-03
       O  7.46633e-04  7.66630e-04  7.08031e-04
       H -6.17661e-03  2.53950e-03  1.96490e-03
       H -2.53775e-03 -3.74588e-03  2.54350e-03
       O  1.23928e-03  1.27349e-03 -4.03988e-05
       H -9.66144e-04 -3.44849e-04 -1.64734e-03
       H  5.18828e-03  2.01410e-03  1.69045e-03
       O  1.13162e-03  6.65340e-04 -9.51352e-04
       H -1.33096e-03 -2.33681e-03 -7.20311e-04
       H -2.19977e-03 -1.74032e-03 -3.53698e-03
       O  3.46014e-05 -7.01708e-04  9.87359e-04
       H  5.65393e-04  2.03969e-03 -3.40936e-03
       H  3.37191e-04  3.50370e-04 -2.64553e-03
       O -1.29199e-04  3.57114e-04  3.51137e-04
       H  1.39538e-03 -2.26277e-03  4.76763e-03
       H  2.26977e-03 -5.91950e-03  3.10350e-03
       O  5.89125e-04  1.45786e-03  1.38491e-04
       H -4.45114e-04  1.42025e-03 -3.13235e-03
       H  4.30790e-03  3.52561e-03  1.44706e-03
       O -1.23231e-04 -1.38438e-04 -2.40451e-04
       H  3.17546e-03 -2.64477e-04 -3.57363e-03
       H  4.11875e-03  6.44046e-03 -4.20434e-03
       O  1.67372e-04  7.45961e-04 -7.72826e-04
       H  7.30434e-03  1.55414e-04 -7.04442e-03
       H -1.01597e-03  6.68630e-03 -3.44933e-03
       O -1.88140e-03 -2.40123e-04 -7.71834e-04
       H  1.99487e-04  9.30622e-04 -5.12626e-03
       H  4.11190e-03  2.05459e-04  3.08245e-03
       O -5.37551e-04  8.63896e-04 -1.02838e-03
       H -1.64072e-03  7.67010e-04  4.37475e-03
       H  1.91381e-03 -1.38381e-03 -2.35514e-04
       O  2.05209e-04  1.23485e-03  9.37179e-04
       H  9.77019e-03  1.86576e-03  1.28366e-04
       H -2.67306e-03 -2.56005e-03  1.07535e-03
       O -7.09084e-04 -2.58568e-03  1.08351e-03
       H  2.74491e-03 -4.63227e-03 -2.13739e-03
       H  3.08877e-03 -4.34727e-03 -5.61973e-03
       O  1.09979e-03  7.40212e-04  4.49682e-04
       H  2.08234e-03 -2.44715e-03  1.95916e-04
       H -2.56314e-03 -3.25387e-03 -3.56296e-04
       O  6.86918e-04  1.12870e-03 -1.85134e-04
       H -6.97194e-03  2.31893e-03 -5.22364e-03
       H  9.00341e-03  3.76390e-03  1.02338e-03
       O  4.13026e-04 -1.09053e-03  5.76228e-04
       H  1.48997e-03  2.48528e-03  1.74357e-03
       H  1.68053e-03  2.29442e-03  2.17544e-03
       O -8.01329e-04 -1.49959e-03  5.53900e-04
       H  8.33202e-03 -1.48586e-03 -1.00371e-02
       H  2.86585e-03 -3.06090e-03 -5.02399e-04
       O -3.12143e-05 -9.93043e-04 -1.56249e-03
       H -9.95499e-03  3.80825e-03 -3.22350e-03
       H -1.33369e-03  2.37324e-03  4.37683e-03
       O -4.65232e-04  9.15467e-04 -1.86454e-03
       H -7.41102e-03  6.63497e-03 -4.58930e-03
       H -3.45115e-03  8.50516e-03  2.73465e-03
       O  6.80301e-04 -2.61195e-05 -8.75413e-04
       H -2.61058e-03 -7.74342e-04 -2.71728e-03
       H  2.55203e-03  2.38502e-04 -4.33928e-03
       O  5.69875e-05 -1.56779e-05  7.79194e-04
       H  6.63394e-03 -1.53055e-03 -3.91152e-03
       H  1.21644e-03 -1.70313e-04 -4.06784e-03
       O  4.63063e-04 -1.29405e-03  3.56677e-05
       H  1.41378e-03 -1.88682e-03  1.76750e-03
       H  3.70773e-03  3.03084e-03 -1.26738e-03
       O -1.24476e-04 -4.55837e-04  1.05967e-03
       H -2.37263e-03  2.51638e-03 -5.24357e-03
       H  4.60685e-04  4.49462e-04  3.33657e-03
       O  1.46633e-03 -2.16116e-03  2.08261e-04
       H  2.11426e-03 -2.82025e-03  3.51527e-03
       H  3.23902e-03 -6.34464e-03  9.44899e-04
192
# CELL(abcABC):   16.99620    29.43815    27.67315    90.00000    90.00000    90.00000  Step:          20  Bead:      10 velocities{atomic_unit}  cell{atomic_unit}
       O  8.50515e-04 -1.73115e-03  6.31639e-04
       H -1.95928e-04 -3.50908e-03  5.37043e-04
       H  1.76367e-04  6.39946e-03 -2.50053e-03
       O -1.09776e-03  2.92852e-05  5.28506e-04
       H  2.30653e-03 -2.41058e-03  3.87959e-05
       H -2.57528e-03 -1.14086e-03 -4.01585e-03
       O -7.88513e-04 -3.84675e-05 -4.88232e-04
       H -3.11941e-04  7.82603e-04 -6.71749e-03
       H  3.77966e-04 -4.52882e-03  1.10836e-02
       O -1.18306e-03  2.59083e-05 -9.97086e-04
       H -4.58687e-03  4.65008e-04 -1.92374e-03
       H -1.08237e-03  1.04477e-04  1.17529e-03
       O  4.92327e-04 -1.45977e-04 -1.08466e-03
       H  8.50546e-04 -3.10786e-03 -1.81611e-03
       H -2.18965e-03 -1.95501e-03 -7.44996e-03
       O -7.82402e-04  1.45584e-04  6.14329e-04
       H  8.13797e-03 -6.17916e-05 -1.43018e-03
       H -4.81886e-04  6.33224e-04  1.14608e-03
       O  1.03274e-03  4.50259e-04 -2.83596e-04
       H  1.59996e-04 -4.24137e-03  5.70788e-03
       H  2.37396e-03  2.29299e-03  2.69051e-03
       O -1.69210e-04  1.36517e-03 -4.40839e-04
       H  2.65133e-03 -2.06115e-03 -2.24170e-03
       H  1.81152e-03 -6.68350e-04 -7.52766e-03
       O -2.01647e-03 -9.41740e-05 -1.87805e-03
       H -1.08682e-04  1.32729e-03 -3.00025e-03
       H  1.00648e-03  3.94918e-04  3.01392e-03
       O  6.43048e-06  1.50076e-03 -1.16422e-03
       H  2.84569e-04  8.68931e-04  2.26035e-03
       H  5.40713e-03 -1.70972e-03 -2.32038e-03
       O  1.63790e-03 -7.21527e-04 -7.33581e-04
       H  1.02030e-03 -2.66977e-03  3.59902e-03
       H  4.52705e-03 -2.06616e-03 -1.81215e-03
       O -1.95660e-04  8.68967e-04  2.08524e-03
       H -3.67817e-04  2.00929e-03 -3.10411e-03
       H  2.78358e-03  1.41659e-03 -4.26119e-03
       O  1.53733e-03  1.15650e-03  1.25832e-03
       H  1.43234e-03  3.24191e-03 -2.88949e-03
       H  3.07590e-03  3.11287e-04 -2.19979e-03
       O -1.87426e-04 -8.34858e-04 -1.27156e-03
       H  1.32871e-03 -1.89840e-03 -8.78585e-04
       H  8.42361e-03 -4.95342e-03 -4.14002e-03
       O  7.94705e-04 -9.94439e-04  5.21260e-04
       H  2.52611e-03  3.46032e-03 -6.80869e-04
       H -1.23257e-03 -2.37970e-03 -2.28473e-03
       O  9.49773e-04  9.90694e-04  1.23026e-03
       H  4.83248e-03  2.28014e-03 -7.39486e-03
       H  2.51786e-03  4.21496e-03  7.03429e-03
       O  7.24917e-04  8.03200e-04 -1.59130e-03
       H  3.32433e-03 -2.06673e-04  1.16889e-03
       H -3.57990e-03 -3.84059e-03 -6.45417e-03
       O -1.50020e-03  1.46819e-04  1.44949e-03
       H -5.13160e-03 -4.68780e-03 -1.56276e-03
       H -2.81170e-03  3.94252e-03 -4.66731e-03
       O -3.45482e-04  1.68229e-05 -1.66630e-03
       H -3.58639e-03  1.97643e-03 -9.52201e-04
       H -5.93511e-03  8.57071e-03 -3.94177e-04
       O  4.00588e-04 -1.30198e-03  6.11393e-05
       H  2.53321e-03 -6.19367e-03  1.40957e-03
       H  1.98390e-04  1.26583e-03 -4.65083e-04
       O  1.44229e-03 -6.87447e-04  1.17481e-03
       H -2.69945e-03  4.16045e-04  4.35051e-03
       H  4.65424e-03 -1.40112e-03 -1.56974e-03
       O  4.23381e-04 -4.54740e-04 -8.24915e-04
       H -7.86493e-03 -4.10315e-03 -4.21571e-03
       H  2.42486e-03  2.07560e-03  7.08260e-04
       O  2.96633e-04  7.15079e-04 -6.37725e-04
       H -4.69606e-03  5.83112e-03 -1.34610e-03
       H -1.77186e-04 -2.18276e-05  1.40341e-03
       O  8.55293e-04 -5.91336e-04  9.95879e-04
       H -1.30741e-03 -3.16028e-03  1.75286e-03
       H -5.76434e-03  6.88979e-04 -5.19430e-03
       O -1.30010e-05 -1.14221e-03 -1.09287e-03
       H -7.57139e-04 -1.21778e-04  4.90679e-03
       H  1.43600e-03  2.20027e-03  1.67553e-03
       O  6.22496e-04 -7.92490e-05 -4.22362e-04
       H -2.74605e-03 -3.56615e-03  4.07636e-03
       H  2.65417e-03 -3.15487e-03 -1.00637e-02
       O  1.13626e-03 -7.23218e-05 -1.47845e-03
       H  1.54361e-03 -7.03925e-03  2.92864e-03
       H -1.44589e-03  1.23429e-03 -2.75357e-03
       O  1.03827e-04  1.01300e-03  8.60903e-04
       H  1.87605e-03 -5.19232e-03  4.16916e-03
       H -4.09476e-03 -5.49128e-03  5.69186e-04
       O  4.41231e-04  7.02669e-04  1.80954e-03
       H -1.16331e-03  9.75362e-04 -6.51471e-03
       H  1.29504e-03  2.63970e-03 -7.62784e-03
       O -1.77841e-04 -1.15100e-03  7.85790e-04
       H  1.52244e-03  5.09376e-03 -4.97730e-04
       H  1.96905e-03  3.11823e-03 -1.52638e-03
       O  3.13398e-04 -1.79829e-03 -1.15985e-03
       H -4.44028e-03  4.71937e-04  6.21826e-03
       H  3.31592e-03 -3.47017e-03  4.48411e-03
       O -6.07493e-04 -1.37204e-03 -1.32845e-07
       H -1.53585e-03 -1.30209e-02 -4.98407e-03
       H  1.25476e-03 -2.56113e-03 -6.16565e-03
       O  9.50201e-04  5.91849e-04  2.51496e-05
       H  1.13239e-03  3.06129e-03 -3.34957e-05
       H -1.05062e-03 -2.04936e-05  3.36414e-03
       O  5.28177e-04 -8.37086e-05  6.16253e-04
       H -2.35260e-03  8.64591e-04 -6.38681e-03
       H  2.74614e-03 -4.28331e-03  3.68552e-03
       O  3.88929e-04 -1.41401e-04  1.41601e-03
       H  2.28829e-04 -5.29158e-04 -1.81625e-03
       H -8.19122e-03  1.27969e-03 -3.24058e-04
       O  6.97083e-04 -3.38526e-04  3.16161e-04
       H -7.32852e-03  7.17373e-03  4.48752e-03
       H -1.78932e-03 -1.66681e-03  7.99163e-03
       O  5.79956e-04 -7.90311e-04  1.44941e-03
       H  3.74541e-03  4.52492e-03  1.01913e-03
       H -2.50371e-03  9.08443e-03  2.35362e-03
       O  6.69752e-04  3.57683e-04 -3.47415e-04
       H -1.83263e-03  3.11029e-03  9.81936e-04
       H  1.15662e-03 -3.27701e-03 -6.84551e-03
       O  2.05896e-04 -8.08288e-04  3.93814e-04
       H -1.26918e-03 -6.90726e-03  2.79256e-04
       H -8.92787e-04 -2.47245e-04  1.70147e-03
       O -5.90789e-04 -6.11574e-04  5.38811e-04
       H  5.09521e-03 -7.65970e-04  2.09643e-03
       H  3.19553e-04 -3.91699e-04  2.11965e-03
       O  4.07511e-04  3.41434e-04  1.35105e-04
       H -1.34574e-03  8.13429e-03  3.26125e-03
       H  6.42087e-03  3.63240e-03 -1.36307e-03
       O  9.41949e-04 -1.89393e-04  7.22018e-05
       H  5.82950e-03  5.00808e-04  2.37910e-03
       H -2.07060e-03 -7.47317e-04 -1.21160e-03
       O -8.79619e-04  1.40446e-04  1.22120e-03
       H -2.60866e-04 -4.70393e-03 -6.81041e-03
       H -4.22361e-03  1.43975e-04 -3.09923e-03
       O -6.39054e-04 -1.13146e-03 -1.63334e-04
       H  1.87263e-03  3.84086e-03 -5.68808e-04
       H -3.08348e-03 -8.75532e-03  7.30057e-03
       O  2.70855e-04 -1.17112e-03 -1.29492e-03
       H  6.69808e-03  1.07902e-03 -4.31682e-03
       H  1.43108e-03  3.49257e-03  6.49929e-04
       O  1.54133e-03  5.51504e-04 -4.72124e-04
       H -2.20510e-03  4.48184e-03 -6.06122e-03
       H  9.81317e-05  4.44749e-03  4.53007e-03
       O  1.48399e-04  2.34913e-04 -2.46718e-05
       H  2.18964e-03  2.57537e-03  1.56062e-03
       H -1.88607e-03 -3.31805e-03  5.08665e-04
       O  2.08355e-04 -6.67643e-04 -8.47569e-04
       H -5.13617e-03  6.25675e-04 -2.51113e-03
       H  3.36858e-03  3.71097e-03  2.68362e-03
       O -8.23413e-05 -6.20876e-04 -1.38547e-04
       H -7.77948e-03 -1.08614e-04 -9.90947e-04
       H -2.97730e-03 -5.06434e-03 -3.68625e-03
       O -1.96216e-03 -6.63623e-04  1.67082e-03
       H -4.33973e-05 -3.61345e-05 -1.62048e-03
       H -3.00651e-03  3.33247e-03  1.18302e-03
       O -1.32159e-03  1.29608e-03  3.72228e-04
       H -3.91693e-03  1.17806e-03 -1.67227e-03
       H  5.36971e-03 -1.51034e-03  5.07018e-03
       O -1.57013e-04 -6.14987e-04  1.87014e-03
       H  9.78332e-04 -4.36842e-03 -4.78624e-03
       H  4.31345e-03 -5.12259e-03  7.39835e-04
       O  2.31892e-04  4.50311e-04 -1.36227e-03
       H  2.10465e-03  8.31178e-04  3.55448e-03
       H -1.58644e-03 -4.15976e-03  2.12516e-04
       O  1.36060e-03  1.12041e-03  2.84787e-04
       H -3.08303e-03 -3.53178e-03 -6.16264e-04
       H -3.32362e-04  2.47672e-03  2.31952e-03
       O  7.20653e-04 -3.77777e-04 -1.00185e-03
       H  3.23260e-03  9.03698e-04 -2.03047e-03
       H  7.42215e-04 -4.15874e-03  3.33080e-03
       O -1.02087e-03 -9.30709e-05 -1.10343e-03
       H  1.73929e-03  3.65669e-04  2.82398e-03
       H -1.39608e-03  1.73066e-03  1.65897e-03
       O  1.18006e-03 -1.62386e-03  6.53361e-04
       H -8.08736e-03  2.40875e-03 -1.01213e-03
       H -2.94167e-03  1.21207e-03  2.19947e-04
       O -1.04295e-03  1.13069e-03  1.36081e-03
       H -9.03006e-04 -3.02272e-03 -3.66995e-03
       H  1.61288e-03  2.75849e-03  4.30632e-03
       O -1.06750e-03 -2.29862e-04 -3.64210e-05
       H  3.06924e-03 -7.41787e-03  5.14746e-04
       H  7.03048e-03  1.20916e-03 -5.97887e-04
       O  8.49664e-06 -1.09491e-03  6.32909e-04
       H -1.09303e-04  3.02012e-04  8.30116e-03
       H -3.24013e-03 -5.37516e-03  6.62330e-05
       O  1.75214e-03  1.57863e-03 -5.29662e-06
       H -4.35289e-03 -2.63822e-03 -6.87185e-03
       H -6.39158e-03  2.60471e-03  4.26247e-04
       O  3.50204e-04 -1.53412e-03  2.94160e-04
       H -3.28573e-03 -3.98553e-03 -3.25969e-04
       H -3.21634e-03  2.88671e-03  3.88784e-03
       O  9.36773e-04 -3.41004e-04  1.48335e-04
       H -1.39777e-04  1.71320e-03 -5.04876e-03
       H -1.46629e-03 -1.73254e-03  1.67768e-03
       O  2.06230e-03 -3.96819e-05  4.07547e-04
       H -1.38147e-02 -3.28161e-03 -2.33015e-03
       H  4.46797e-03 -5.80267e-03 -6.32107e-03
192
# CELL(abcABC):   16.99620    29.43815    27.67315    90.00000    90.00000    90.00000  Step:          30  Bead:      10 velocities{atomic_unit}  cell{atomic_unit}
       O -1.48422e-04  1.08380e-03 -5.60896e-04
       H  1.15513e-03  2.52346e-03 -3.10282e-03
       H  4.02630e-03 -2.93457e-03  5.81076e-03
       O -1.96163e-03  1.00711e-03  2.41562e-04
       H -2.81796e-03  7.13968e-04 -2.02935e-03
       H  4.50539e-03  3.06330e-03  2.12714e-03
       O -6.79743e-04  7.21730e-04  3.87630e-04
       H  7.14054e-04  2.27326e-03  1.72112e-03
       H -3.08158e-03 -3.84781e-03 -1.92134e-03
       O -5.06004e-04 -6.55658e-04 -1.51652e-03
       H  1.00075e-03 -4.18150e-03 -1.03493e-02
       H  6.57414e-03 -1.91182e-03  1.75720e-03
       O -8.71469e-04 -1.17509e-04 -2.34100e-04
       H -3.04517e-04 -6.17955e-03 -1.46939e-03
       H  6.33776e-04 -9.30122e-04 -7.70922e-03
       O -7.03884e-05  4.99116e-04 -1.23292e-03
       H  3.56319e-03 -3.10725e-03 -3.49210e-03
       H  1.86298e-03  1.43271e-03  1.48044e-03
       O -6.24833e-04  5.75705e-04  3.11584e-04
       H  3.31626e-03  6.19319e-04  2.90970e-03
       H -4.25734e-03  5.92627e-03 -1.40450e-03
       O  2.45930e-04  2.72997e-04 -2.29179e-04
       H -4.44308e-03  2.03853e-03 -8.02496e-04
       H -6.16382e-03  3.84326e-03 -1.47949e-03
       O -8.84988e-04  1.30825e-03 -3.79400e-04
       H -3.26070e-03 -5.40770e-04 -8.68870e-04
       H -6.67955e-04 -4.01880e-03  1.09844e-03
       O  4.98944e-04  9.18046e-04  2.76937e-05
       H -6.89921e-03 -3.88383e-03 -3.43652e-03
       H -3.68410e-03 -1.28686e-03  1.04594e-03
       O  5.32277e-04 -1.30592e-03  6.55868e-04
       H -4.65134e-03  4.83472e-03 -3.49250e-03
       H  2.54304e-04  1.88141e-05  2.08646e-03
       O  2.68290e-04 -3.36533e-05  3.29733e-04
       H -2.55203e-03 -2.85827e-03 -2.13882e-03