192
# CELL(abcABC):   16.99620    29.43815    27.67315    90.00000    90.00000    90.00000  Step:           0  Bead:      19 velocities{atomic_unit}  cell{atomic_unit}
       O  9.07882e-04 -3.39577e-04  5.13605e-04
       H -2.47194e-03  6.92888e-04  4.41285e-05
       H -1.03530e-03  2.63159e-03 -3.01492e-03
       O -1.52223e-03 -7.30353e-04  1.05672e-03
       H  1.07500e-03  2.63877e-03  3.34076e-04
       H -3.94655e-03 -8.84290e-04 -8.61643e-04
       O  7.92356e-04  2.59967e-04 -9.74984e-04
       H -1.44519e-03 -3.12737e-04 -2.99044e-03
       H -4.33357e-03 -9.69517e-04 -2.57457e-03
       O -4.29318e-05 -1.01104e-03  1.70285e-03
       H  5.66558e-03 -8.01942e-03  6.13154e-03
       H  2.96264e-03 -1.68132e-04 -4.03829e-04
       O -9.40882e-04  1.07687e-03 -2.25775e-03
       H -2.98619e-03 -2.98554e-03 -1.79763e-03
       H -4.97096e-03  1.85332e-03 -1.03893e-03
       O  3.98736e-04 -4.60294e-04 -1.89568e-03
       H  8.14519e-04 -1.78097e-04 -1.30627e-03
       H  5.42978e-03 -1.43885e-03 -1.16570e-03
       O  3.60618e-04 -1.57387e-03 -7.76052e-04
       H -3.28153e-03  3.03826e-03  5.98847e-03
       H -4.99038e-03  1.95220e-03  1.14605e-03
       O  8.87885e-04 -1.33198e-04  6.78675e-05
       H  9.62483e-05  1.28894e-03  2.08034e-03
       H  3.39215e-03  1.15366e-03 -3.79939e-03
       O -8.00354e-04 -1.64344e-03 -4.58358e-04
       H -3.16524e-04 -2.39496e-03  5.31218e-04
       H -5.57069e-03 -2.93085e-03 -3.17887e-03
       O  5.12800e-04  1.33665e-03  6.30353e-04
       H  1.13468e-03  1.57642e-03  2.51003e-03
       H -2.80326e-03 -2.37616e-03 -9.88620e-05
       O  1.61660e-03  6.56529e-04  5.84157e-04
       H  5.75584e-03 -2.42911e-04  9.02809e-04
       H -5.01941e-03 -2.59098e-03  3.93123e-03
       O -3.14628e-04  3.28340e-04 -1.55961e-04
       H -2.00493e-03 -1.85043e-03 -3.34892e-03
       H  4.67651e-03 -2.84359e-03  1.00458e-03
       O -1.01799e-03  1.38390e-04 -2.72656e-04
       H  2.94122e-03 -2.18755e-03  2.66286e-03
       H  7.94902e-04  2.34848e-03 -2.50037e-03
       O  5.77917e-04 -9.96251e-04 -6.61295e-04
       H -5.10584e-04 -7.01127e-04 -4.78473e-03
       H -3.76709e-03 -1.34354e-03 -3.76765e-04
       O  1.01551e-03  7.80252e-04 -1.39818e-03
       H -3.32890e-04 -7.07424e-04 -6.93023e-03
       H  1.61276e-03 -1.09408e-03 -6.24281e-03
       O -5.48116e-04  2.88456e-03 -7.02683e-04
       H -2.85035e-03 -1.29991e-03 -1.61169e-03
       H -1.30963e-03 -5.39253e-03  3.68370e-03
       O  8.30794e-04  1.39081e-03 -1.43940e-04
       H  5.21339e-03 -3.06768e-03  1.60237e-04
       H -1.41325e-03  8.49298e-04 -1.59380e-04
       O  1.93731e-04 -1.04465e-03  4.18752e-04
       H -1.96379e-03 -5.47888e-03 -3.88500e-04
       H  3.43108e-03  5.06607e-03  6.67900e-03
       O  5.12019e-04  1.07432e-03 -2.66931e-05
       H -9.56747e-04 -6.77892e-04 -3.43638e-03
       H -2.43500e-03  2.24060e-03  7.62870e-03
       O -1.21416e-04  1.34472e-03  6.00325e-04
       H  1.37488e-03  6.84007e-03  7.62796e-04
       H  1.91347e-03 -2.66375e-03  1.77029e-03
       O -9.80286e-05  7.06990e-04 -2.84688e-04
       H -6.98790e-03 -2.43916e-03 -3.56577e-03
       H  6.63532e-03 -1.49946e-04  2.06916e-03
       O  1.78098e-04  8.01478e-04 -6.03209e-04
       H -4.16266e-03  2.01657e-03 -4.57193e-03
       H  1.43544e-03  6.34014e-03 -1.44149e-03
       O  3.59286e-05 -1.08670e-03  1.25054e-03
       H  4.58377e-03  5.56627e-03  3.16458e-04
       H -4.96203e-03  2.04309e-03  1.61549e-03
       O -1.77232e-04  1.12292e-03  1.45522e-03
       H -4.95814e-03 -9.68910e-04  2.94432e-03
       H -5.43474e-03  6.59227e-03 -4.17792e-04
       O -1.80617e-03 -3.46579e-05 -7.88075e-04
       H  4.38123e-03  7.05030e-04 -1.59383e-04
       H  2.10384e-03 -4.90423e-03  5.18545e-03
       O -7.06128e-04  2.36207e-05  4.58732e-04
       H -4.21515e-03 -2.29872e-03 -1.32902e-03
       H  6.29296e-04 -1.04582e-03  1.22044e-03
       O -1.16004e-04  2.85507e-04  5.82812e-04
       H -1.81435e-03  3.23034e-03  1.42710e-03
       H  2.41653e-04  4.39428e-03 -4.38020e-04
       O  1.28489e-04 -7.86084e-04 -3.91349e-04
       H -3.06275e-03 -2.24945e-03 -4.04378e-03
       H -5.64949e-04 -3.93518e-03 -1.72293e-03
       O  1.21289e-03 -3.46646e-04  4.10658e-04
       H  1.08722e-03 -4.41399e-03 -3.85547e-03
       H -2.90082e-04  1.47632e-03 -6.58268e-03
       O -8.14529e-04 -3.23479e-04  1.20280e-03
       H -2.63931e-03  5.02991e-03 -4.60154e-03
       H -2.81550e-03 -5.42206e-03  3.86547e-03
       O  4.61350e-04  8.99184e-05  1.95424e-03
       H  3.00256e-03  7.65543e-04  2.32986e-03
       H  5.43419e-03  4.72347e-03 -1.88871e-03
       O  5.25860e-04  1.38168e-03 -1.11666e-03
       H -2.70861e-03  3.26657e-03 -1.93122e-03
       H  3.62099e-03 -2.16213e-03  9.63582e-04
       O  5.50979e-04  1.40692e-04 -8.74852e-04
       H  4.06139e-03 -3.78231e-03  1.60580e-03
       H -1.84874e-03 -1.57702e-03 -5.67472e-03
       O -2.07841e-04 -1.52940e-04  1.98494e-04
       H  5.92355e-03 -1.38397e-03 -1.67129e-03
       H -2.24773e-03 -2.89042e-04  1.14919e-04
       O  1.04545e-03  2.79785e-04 -8.79084e-04
       H  1.54680e-03  1.11426e-04  3.89233e-03
       H -5.55897e-04 -6.26115e-04  6.89189e-04
       O -3.28104e-04 -3.08749e-04  8.36387e-04
       H  5.24669e-04 -4.39479e-03 -1.21861e-03
       H -2.14270e-03  8.60881e-04 -7.25659e-04
       O -5.84964e-04 -2.28572e-03 -2.05953e-04
       H -1.02198e-03  8.46431e-03  2.79546e-03
       H -7.54836e-04 -3.25148e-03  9.62953e-03
       O -1.20884e-04  1.38430e-04  1.64052e-04
       H -8.53735e-03  5.08158e-03  2.96715e-03
       H -2.38485e-03  9.91226e-04 -2.75664e-03
       O  3.31818e-04 -1.03896e-03 -4.39234e-04
       H -6.12527e-03 -4.09892e-03 -1.15042e-03
       H  4.47294e-04 -2.48973e-03  3.69407e-03
       O -9.32396e-04  1.10951e-04  1.69804e-03
       H -1.62327e-03  7.59779e-04 -2.34197e-03
       H -3.48580e-03  4.07421e-03 -5.15413e-03
       O -1.32140e-03 -2.84805e-04 -1.36388e-03
       H -2.30136e-03 -5.12685e-03 -4.18511e-03
       H -2.81367e-03 -2.24471e-03 -2.61280e-03
       O -9.98435e-04  7.36294e-04 -3.91685e-04
       H -3.10073e-03 -3.52325e-03  1.98599e-03
       H  2.88020e-03  4.65546e-03 -7.69898e-03
       O  3.84230e-04 -2.00925e-03  4.24692e-04
       H  9.95659e-04 -3.96547e-03 -6.59172e-03
       H  6.58794e-04  7.29101e-04 -1.04488e-04
       O -2.22428e-04 -9.96711e-04 -1.38868e-03
       H  2.43775e-03 -1.64307e-03  5.22705e-03
       H  8.49171e-04  3.28127e-03 -4.27877e-03
       O -1.83786e-03  2.18943e-04  2.25736e-04
       H  1.22133e-03  2.18747e-03  5.85363e-03
       H  3.74967e-03 -2.50604e-03 -2.99659e-03
       O  6.19985e-04 -6.01921e-04 -4.10736e-04
       H -5.72662e-04  3.17132e-03 -2.84752e-03
       H -6.63466e-03 -3.03510e-03  3.31841e-03
       O  5.15149e-04  2.35140e-04 -5.93744e-04
       H -2.18762e-03  3.22733e-03 -6.45480e-03
       H -4.36149e-03 -4.41572e-03 -4.86704e-03
       O -3.68766e-05 -3.91004e-04 -1.02213e-04
       H  3.54858e-04 -3.83625e-04  2.63147e-03
       H -1.25951e-03 -2.42762e-03 -1.57028e-03
       O -1.04438e-03  8.77133e-04  5.53148e-04
       H  7.17500e-03  5.38049e-03 -4.87842e-03
       H -4.14169e-03 -1.15949e-03  1.74061e-03
       O -7.28205e-04  9.38537e-04 -9.42925e-04
       H  6.16145e-03  1.64539e-03 -1.05665e-03
       H -7.07412e-04 -2.12221e-03  5.13823e-03
       O -8.42238e-04 -6.30502e-04  6.54169e-04
       H  8.04027e-03  2.27872e-04  1.33689e-03
       H -7.46870e-03 -3.86277e-03  3.69955e-03
       O -2.04654e-03 -1.43465e-03  2.72292e-04
       H -5.44468e-03 -4.52431e-03 -6.37172e-03
       H -1.03531e-03 -8.32009e-05 -3.39394e-04
       O -1.08590e-03 -5.24659e-04  1.18029e-03
       H  1.53816e-03 -2.73637e-03 -1.74027e-03
       H -2.09965e-03 -2.84017e-03  6.57760e-03
       O  4.92605e-04 -2.38697e-04  2.33570e-04
       H -1.56988e-03 -2.67473e-03  6.45624e-03
       H  3.99569e-03  1.42544e-03  2.95047e-03
       O  1.12008e-03 -1.40128e-03 -6.03153e-05
       H  5.40832e-03 -3.27683e-03 -1.16967e-03
       H -1.65741e-03  1.98656e-04  4.71725e-04
       O  8.03185e-04 -3.18510e-04  1.70429e-04
       H -7.48519e-04 -9.17720e-03  1.97565e-03
       H  4.30959e-03  7.21660e-04  2.39674e-03
       O -2.41451e-04  8.87511e-04  7.74568e-04
       H  4.81619e-03  4.34753e-03  3.69305e-03
       H -7.99855e-04 -1.65048e-04  3.99723e-03
       O -6.88820e-04  1.08866e-03 -4.55201e-06
       H  2.82768e-03 -4.59085e-03 -3.06435e-03
       H -4.26567e-03 -1.69572e-03  1.23840e-03
       O -8.68419e-04  2.29217e-03 -6.79793e-04
       H -8.88187e-04  8.39092e-03  5.80816e-04
       H  1.61497e-03  3.32782e-03  3.38448e-03
       O -1.26825e-03  8.16642e-04 -1.67623e-03
       H  3.14032e-03 -1.82286e-03 -3.58522e-03
       H -5.52345e-03 -2.05978e-03  5.41493e-03
       O -1.12903e-03  4.37715e-04 -5.63833e-04
       H -4.28112e-03 -3.77056e-03  5.58863e-03
       H -9.33514e-04  6.81759e-04  6.44069e-03
       O -1.45191e-03 -2.84711e-04  7.58877e-04
       H -5.70877e-03 -2.52753e-03  2.77854e-03
       H  4.01411e-04 -5.04265e-04  1.05678e-03
       O  1.58181e-04 -2.20071e-04 -6.95696e-05
       H  2.14517e-03  1.61506e-03  5.05858e-03
       H  4.50977e-03  1.36190e-03  4.34750e-03
       O -9.50548e-04 -1.55085e-03 -3.98968e-04
       H  4.26307e-03  4.57758e-03 -6.80630e-04
       H  1.26240e-03 -1.71116e-03  4.20648e-03
192
# CELL(abcABC):   16.99620    29.43815    27.67315    90.00000    90.00000    90.00000  Step:          10  Bead:      19 velocities{atomic_unit}  cell{atomic_unit}
       O  1.21741e-03  1.86958e-03  3.46162e-04
       H -4.63367e-04  3.90896e-03  6.82832e-04
       H  3.23471e-03  6.10288e-04  1.37650e-03
       O  7.38335e-04  8.05332e-04 -1.14687e-03
       H  1.24980e-03  2.76919e-03  3.43188e-03
       H  1.87575e-03  2.64970e-03  1.45082e-03
       O  6.70486e-04 -3.80757e-05  2.67036e-04
       H -1.57660e-03 -2.38113e-03 -5.93446e-03
       H -2.32128e-03 -8.77814e-03  8.10484e-03
       O -3.52384e-04  1.08182e-04 -9.51484e-04
       H -7.85854e-03  1.08596e-03  1.91802e-03
       H -7.31960e-03 -4.92297e-03 -1.71840e-04
       O  3.76742e-04 -2.02452e-03 -1.54424e-04
       H  4.68756e-03  2.07059e-03  1.94319e-03
       H  1.52941e-03 -3.23780e-04 -2.36946e-04
       O -2.70835e-04  1.08578e-03  1.01330e-03
       H  3.74787e-03 -3.31045e-03  3.20230e-03
       H -3.56509e-03 -3.83569e-03 -7.64817e-04
       O  1.45961e-03 -1.48172e-03  1.45970e-03
       H -1.29960e-03 -4.49766e-03 -7.56006e-03
       H -2.84817e-03 -4.61862e-03  4.88067e-03
       O -1.19259e-05 -7.79247e-05  2.96585e-04
       H  2.09806e-03  3.23695e-03  3.03452e-03
       H -7.87313e-03 -2.10242e-03  3.79507e-05
       O -4.79139e-04  1.19466e-03  9.48856e-04
       H  1.57725e-04  4.33985e-03 -7.61283e-04
       H -2.13765e-03  1.39895e-03  4.46248e-03
       O -1.47399e-04  1.06646e-03 -5.78036e-04
       H  5.44738e-03 -4.91023e-04  4.99185e-03
       H  1.92376e-04 -4.23926e-04 -7.37533e-04
       O  1.70676e-03 -2.30862e-04 -1.56075e-03
       H -8.57628e-04  3.05982e-03 -5.52643e-03
       H  2.64545e-03  4.93434e-03  4.47363e-03
       O -4.07378e-04  9.49550e-04  6.09293e-04
       H -9.84523e-04  7.65624e-03 -3.28523e-03
       H -7.23005e-03  5.94596e-03  2.22682e-03
       O -6.88468e-05 -9.80993e-04 -1.15049e-03
       H -3.45828e-03 -4.29000e-03  8.16017e-05
       H -1.56354e-03  6.54857e-04 -7.54741e-04
       O -1.05458e-03  4.80562e-04 -1.02999e-03
       H  3.18181e-03 -2.27171e-03  7.80287e-04
       H  2.34234e-03 -4.97376e-04  9.87167e-04
       O  1.19525e-04 -5.56749e-05 -3.37947e-04
       H  8.85939e-04  8.18466e-03  4.69668e-03
       H -1.86811e-03  6.94576e-05  2.12471e-03
       O  8.55605e-04  5.03993e-04 -5.59252e-04
       H -3.29298e-03 -4.58523e-03  1.59859e-03
       H -7.74912e-04  6.14726e-03 -3.63379e-03
       O -1.06251e-03  2.45145e-04 -5.23584e-04
       H  1.58593e-03 -4.31303e-03 -6.27137e-04
       H  5.10214e-03 -5.34119e-03 -4.22099e-03
       O  3.04303e-05  5.50432e-04 -1.40908e-03
       H  1.09945e-03  3.38816e-03 -7.98853e-03
       H  1.30117e-03 -5.47714e-05  1.92962e-04
       O -6.49221e-04 -6.66989e-04  1.45186e-05
       H -3.55899e-03  3.41292e-03 -3.71681e-03
       H  4.81148e-04  4.75765e-03 -1.23190e-03
       O -8.62825e-04  4.04016e-04 -2.45036e-04
       H  9.00342e-04 -2.70617e-03  9.74388e-05
       H  9.53992e-03  1.89670e-03 -1.44118e-03
       O -2.36271e-03 -4.45633e-04 -3.94298e-04
       H  8.63561e-03 -3.90866e-03  2.62903e-03
       H  1.33360e-03  5.05614e-03  3.11588e-03
       O -4.73526e-06 -9.17792e-06 -9.88373e-04
       H -1.35249e-03 -2.60976e-03  2.42138e-03
       H  1.21728e-03  1.24925e-03  1.70875e-03
       O -7.20918e-04 -4.78460e-04  6.81549e-04
       H  3.62018e-03 -3.52033e-03  6.60118e-03
       H  4.11582e-03  4.50517e-03  2.17691e-03
       O -1.73506e-03  6.30919e-04 -4.62461e-05
       H -4.09009e-03  3.67930e-03  7.38884e-03
       H  9.69378e-04  6.28630e-03 -1.75678e-03
       O  9.12608e-04 -2.68590e-04 -1.52509e-03
       H  4.52737e-03 -5.57283e-03 -3.49839e-03
       H -6.33730e-04  3.02188e-04  1.03400e-03
       O -8.35253e-04  3.34084e-04  4.36424e-04
       H -2.05489e-03 -5.65695e-04  3.87552e-04
       H  1.47070e-03  5.30199e-03  2.35940e-03
       O -3.30239e-04  1.84299e-04  3.45174e-04
       H -3.93489e-04 -2.85100e-03  2.77012e-03
       H  7.15085e-03  2.56068e-03 -3.43045e-03
       O -1.70775e-04  3.53976e-05 -6.13071e-04
       H  3.58812e-03 -5.71796e-03  1.26488e-03
       H -1.13078e-03  1.79829e-03 -3.27757e-04
       O  7.27377e-04 -6.50616e-04 -1.15603e-04
       H -2.43949e-03  5.30228e-04  9.18482e-04
       H -3.40983e-03 -2.37178e-04 -6.20223e-03
       O  6.33085e-04  6.79511e-04  6.58417e-04
       H  7.24192e-04 -8.09513e-03 -5.25503e-03
       H -5.40616e-03  1.68648e-03 -2.52536e-04
       O  4.71905e-04 -2.00100e-03  9.89123e-04
       H  3.87803e-03  7.18506e-03  6.45476e-03
       H -3.40282e-03 -4.19836e-03 -1.47117e-03
       O -1.78779e-04 -1.17671e-04  9.39722e-04
       H -4.09112e-03  6.94382e-03 -3.64555e-04
       H  9.61375e-04 -4.65481e-03  2.08382e-03
       O  1.07407e-04  4.59920e-04  1.49592e-03
       H  1.47110e-04 -5.34357e-03  1.30728e-03
       H  4.90646e-03  3.80162e-03 -1.50322e-03
       O  1.11091e-03 -2.22978e-04  1.94960e-03
       H -1.36913e-03 -3.65143e-03 -6.45417e-03
       H -7.08188e-03 -1.40094e-03 -1.21294e-03
       O  3.97945e-04  1.83389e-04  6.57729e-05
       H -2.14279e-03  8.43550e-04 -2.32138e-03
       H  4.33146e-04 -9.75227e-04 -1.56622e-03
       O  2.35444e-04 -1.26314e-03  8.59589e-04
       H  7.75185e-04 -1.14344e-03  9.68288e-04
       H  1.01175e-03 -2.12037e-03 -9.02029e-04
       O  8.53284e-04 -6.09617e-04  1.79489e-03
       H -2.75832e-03 -1.59036e-03  1.97143e-03
       H -1.61303e-03  7.06024e-04 -3.56440e-03
       O -1.09929e-03  2.42123e-04 -2.36803e-04
       H  2.88059e-03 -2.55381e-03  2.28810e-03
       H -1.20232e-03  3.00007e-03 -6.68621e-05
       O -1.67635e-03  3.65462e-04  6.12514e-05
       H -1.58616e-03  3.47489e-03  1.48796e-03
       H  8.56057e-04 -7.40070e-03  3.98835e-03
       O  6.24312e-04  1.39996e-03 -1.61503e-03
       H  7.36521e-06  1.59913e-03 -2.50719e-03
       H -3.34160e-03 -2.59131e-04  3.15092e-03
       O -1.04999e-03 -1.23316e-03  1.44138e-04
       H  3.94444e-03  7.48067e-04 -2.53587e-03
       H  2.63209e-03 -1.58599e-04  2.32806e-03
       O -5.41670e-04 -3.38528e-04  4.83444e-04
       H  2.47234e-03  2.89367e-04 -1.94596e-04
       H -2.81644e-03 -1.52235e-03  2.20048e-05
       O -2.30716e-04  9.38265e-04 -6.55651e-05
       H  4.55247e-03  9.37982e-04  1.14527e-03
       H  3.87730e-03  9.30773e-04  6.77735e-03
       O -4.97584e-06 -1.30601e-03  8.84433e-04
       H -2.87916e-03 -4.31362e-03  4.86301e-03
       H  3.19221e-03 -6.90022e-03 -1.58825e-03
       O -1.01598e-03 -5.44634e-04  1.54794e-04
       H -1.07036e-03 -3.98854e-04 -6.11880e-04
       H -3.20710e-03 -2.67235e-03  1.87889e-03
       O -3.37870e-04 -1.56723e-03  1.63884e-03
       H  6.22142e-03 -7.59988e-03 -2.44509e-03
       H -3.14343e-03 -3.26471e-03  6.48965e-03
       O  6.53205e-05  1.23513e-03 -4.68607e-04
       H  1.78411e-03  3.79621e-03 -7.95090e-04
       H  5.59541e-04 -1.60334e-03 -4.10006e-03
       O  9.92323e-05 -6.66591e-04 -2.02258e-04
       H  1.86495e-03 -3.42488e-03  1.61245e-03
       H -1.81899e-03  2.02645e-03 -6.18036e-03
       O  1.78379e-03  8.44941e-04  7.75941e-04
       H  6.93599e-03 -1.26044e-03  2.09340e-03
       H -3.97965e-03  3.19226e-03 -4.63089e-03
       O -7.49041e-05  3.58050e-04 -6.26932e-04
       H  1.45469e-03 -1.93627e-03  1.75336e-03
       H  2.87671e-03  1.87726e-03 -3.56653e-03
       O -9.96760e-04 -1.08163e-04 -6.09713e-04
       H  3.53526e-03 -1.03241e-04  6.10537e-03
       H -5.80671e-03 -4.96471e-03 -1.74868e-03
       O -4.25402e-04  2.74133e-04  6.70400e-04
       H -1.82308e-03 -3.51386e-03 -6.58852e-04
       H -4.16859e-03 -5.96860e-03  1.76871e-03
       O  2.93911e-04 -8.66229e-04  1.03210e-03
       H  6.70323e-04 -3.73401e-03 -5.48445e-03
       H  2.88369e-03  6.79024e-04  1.33879e-03
       O -8.13442e-04  3.30433e-05 -8.83135e-04
       H -5.86033e-03 -6.91664e-05 -4.88117e-03
       H  6.85565e-03  2.14449e-03 -7.95859e-03
       O -2.69473e-04 -7.72129e-04 -5.17015e-05
       H -5.19948e-04 -9.76746e-04 -4.48787e-03
       H  1.98725e-03 -4.65102e-04  3.87841e-04
       O  4.84035e-04 -6.61028e-04 -4.09642e-04
       H -9.44250e-04  2.41105e-03 -3.49571e-03
       H  2.80563e-03 -3.11378e-03  4.70171e-03
       O  5.98225e-04 -5.80940e-04  1.08994e-03
       H  3.09072e-04 -4.39205e-03 -5.10150e-04
       H  4.70339e-04  4.15625e-03  3.84158e-03
       O  1.39997e-03 -6.01882e-05  9.07745e-04
       H  1.65501e-03  2.43705e-03 -7.60419e-04
       H -4.83278e-03 -3.76891e-04 -3.25321e-03
       O  4.97559e-05 -3.52329e-04 -5.59180e-04
       H -2.18816e-03 -4.64372e-04  1.66064e-03
       H  4.10451e-03 -3.95091e-03  4.62064e-03
       O -6.79454e-05 -5.32597e-04 -6.70255e-04
       H  5.42736e-04 -1.64368e-04  4.26507e-03
       H  1.05357e-03 -4.08622e-03  4.54292e-03
       O -4.73401e-04  3.32414e-04 -4.29457e-04
       H -7.47410e-03 -3.76860e-03  2.32810e-03
       H  1.46497e-03  1.27400e-03  3.22406e-03
       O -7.37467e-05  8.48522e-04 -1.48397e-03
       H  5.09439e-03  3.86368e-03  6.20633e-04
       H  2.04770e-03  1.72338e-03 -6.79145e-04
       O  2.15302e-05  3.51099e-05 -2.72152e-04
       H  7.01783e-04 -8.64719e-04  9.06544e-04
       H  1.22931e-03  5.82975e-03 -3.39305e-03
       O  1.46908e-03 -5.47163e-04  1.37536e-04
       H  2.75193e-03 -2.20413e-04  3.73725e-04
       H  2.30855e-03 -3.22693e-03  4.05791e-03
192
# CELL(abcABC):   16.99620    29.43815    27.67315    90.00000    90.00000    90.00000  Step:          20  Bead:      19 velocities{atomic_unit}  cell{atomic_unit}
       O  6.49304e-05 -6.28626e-04 -3.09361e-04
       H  5.35485e-04 -2.86871e-03 -2.43547e-03
       H  3.41242e-03 -7.31356e-03  1.62912e-03
       O -9.19231e-04  1.63556e-03 -4.38620e-04
       H  4.62557e-04 -3.55533e-03 -3.35172e-03
       H -3.04856e-03 -2.38712e-03 -2.58796e-03
       O -8.73664e-04  9.67527e-04 -6.09377e-04
       H -3.54264e-03 -1.65944e-03  4.57109e-03
       H -1.33890e-03  9.21091e-04  5.79553e-04
       O  1.10871e-03 -1.12420e-03  2.74105e-04
       H -7.62351e-04  2.54929e-03  3.16036e-03
       H  7.05167e-04 -7.52432e-04  2.15539e-03
       O  5.76883e-04 -1.69440e-03 -1.22255e-03
       H -1.94005e-04  1.74880e-03 -5.16635e-03
       H  4.70728e-03  7.07667e-03 -7.52760e-03
       O  3.25024e-04 -2.32728e-04  2.14801e-04
       H  1.25318e-03  2.38637e-03 -2.37798e-03
       H  5.67408e-03 -3.00523e-03 -1.95129e-03
       O  2.33943e-04  1.57433e-04 -3.39854e-04
       H -1.56381e-03 -5.70520e-05  1.66079e-03
       H  7.95549e-04  2.85595e-03  1.62945e-04
       O -6.69785e-04  1.58666e-04 -2.03195e-04
       H -1.25965e-03 -4.68594e-03  7.71328e-04
       H -5.52554e-03 -4.07487e-03  4.60848e-04
       O  2.30093e-04  4.01321e-04 -7.32800e-04
       H  8.73681e-04  3.23480e-03 -1.68053e-03
       H -3.17930e-03 -2.28846e-04 -4.84588e-03
       O  5.26910e-04 -1.54635e-03  1.83816e-03
       H  5.36117e-03 -3.39361e-04 -7.44161e-03
       H -5.35383e-03 -5.29464e-03  4.40290e-03
       O  1.08609e-03  4.44416e-04  7.41153e-04
       H -2.91197e-05 -6.42017e-03  3.34279e-03
       H -4.03735e-03 -5.67900e-03  8.79535e-03
       O  5.74518e-04  4.15343e-05  1.93007e-05
       H  3.55490e-03 -9.35144e-03  1.75253e-03
       H  1.41111e-04  3.60020e-03 -4.16644e-03
       O  7.39362e-04  1.41006e-03 -7.82140e-04
       H -3.81649e-03 -2.61816e-03 -1.81226e-04
       H  5.89830e-04  6.06945e-04 -5.08017e-04
       O -1.78674e-04 -3.81149e-04  1.32866e-03
       H  4.85859e-04 -5.82637e-03 -3.59139e-03
       H -3.38099e-03  3.56744e-03 -5.40489e-03
       O  4.77226e-04 -6.70054e-04  1.37401e-03
       H  1.14257e-03  7.79180e-03 -3.43909e-03
       H  4.05889e-04 -6.26277e-03  5.83970e-03
       O -2.92409e-05 -1.98737e-04 -4.06779e-04
       H  3.03996e-03  1.61378e-03 -8.10147e-04
       H  3.94794e-03  1.18960e-03 -3.05174e-04
       O -1.14853e-03 -1.01026e-03 -1.06267e-03
       H  5.49246e-03  3.22639e-03 -2.56248e-03
       H  7.18546e-04  5.59383e-03 -8.68336e-04
       O  1.93023e-03 -1.74144e-03 -7.34432e-04
       H  7.63659e-05 -2.71471e-03  5.53689e-03
       H -3.01153e-03 -1.64613e-03 -1.14246e-02
       O -1.19739e-03 -1.53752e-03 -6.71181e-04
       H  2.94190e-04 -1.37699e-03  3.35653e-03
       H -8.49217e-04  1.63857e-03 -2.66272e-03
       O -3.99896e-05 -1.24802e-03  4.71963e-04
       H  8.20815e-04  6.83566e-05  4.03685e-03
       H  7.16686e-06  5.12913e-03  2.07911e-03
       O  8.54326e-04 -2.08648e-03 -8.46694e-04
       H  8.72806e-04 -5.41843e-03  2.69005e-03
       H -5.65196e-04  3.33056e-03  3.72730e-03
       O -9.05149e-04  2.37219e-04  5.24590e-04
       H  6.15119e-04  5.27791e-04  1.99109e-03
       H -3.53787e-03  9.79116e-04  3.67851e-03
       O -4.70017e-04  7.01619e-04  5.35484e-04
       H  5.23919e-03  1.57130e-03  7.64994e-04
       H  6.50141e-03  9.56091e-04 -2.33090e-05
       O  1.98406e-04 -1.74835e-03 -2.51655e-04
       H  1.51149e-03  1.87194e-03 -8.32489e-04
       H  2.48385e-03  9.61683e-04  1.05660e-03
       O -1.92089e-03  7.44081e-06 -9.74169e-04
       H -2.92573e-04  4.55061e-03 -2.95787e-03
       H  2.98752e-04  1.55743e-03  1.59846e-03
       O  4.78266e-04  8.28942e-04 -3.81748e-05
       H  4.74774e-04  8.49121e-04 -3.43011e-03
       H -1.86532e-03  3.34434e-03  1.40141e-04
       O  6.95534e-04 -1.12576e-03  1.02896e-04
       H  3.59362e-03  3.36610e-03  2.09243e-03
       H  4.06146e-03  6.49678e-03 -1.75322e-04
       O -1.28848e-03 -1.59503e-03 -2.35724e-04
       H -3.75801e-03 -1.85799e-03 -4.64600e-03
       H -1.88763e-03 -8.81534e-04 -1.59765e-03
       O  4.04029e-04  8.96893e-05 -3.62375e-04
       H -4.32419e-03  2.39141e-03  3.34681e-03
       H -1.71751e-03 -4.92928e-03 -4.77797e-03
       O -5.86442e-04  2.48709e-03  1.30079e-03
       H  2.48701e-04  2.16959e-03  2.99683e-03
       H  2.17583e-03 -7.47232e-03  3.33665e-03
       O  1.35689e-04  8.95234e-04  1.52545e-03
       H -4.29627e-03 -1.45348e-04 -2.55125e-03
       H  4.75521e-03 -3.99057e-04  4.59266e-03
       O  1.35648e-03  6.71189e-05  5.22316e-04
       H  5.38625e-03 -3.41632e-03  2.30279e-04
       H  4.32939e-03  2.20531e-03 -1.91996e-03
       O -3.94980e-04 -5.40688e-04 -1.52742e-04
       H -2.65023e-03 -3.76635e-03  1.04877e-04
       H -2.76806e-04  1.19812e-03  2.75679e-03
       O  4.54581e-05 -1.60014e-04  4.58629e-04
       H -2.15175e-03  2.25275e-03  4.65055e-03
       H -4.92884e-03 -8.42471e-03 -5.27360e-04
       O -1.02343e-03 -7.92294e-04  8.10128e-04
       H  6.88589e-03  7.35821e-03  2.24255e-03
       H -6.09832e-03  7.79556e-04 -2.56847e-03
       O -4.53466e-04  2.69145e-03 -1.63080e-04
       H  2.71835e-03 -4.29101e-03 -1.32788e-03
       H  2.97483e-03 -4.90933e-04  2.15730e-03
       O -7.92931e-04 -6.60214e-04 -3.90445e-04
       H -1.25234e-04  2.27406e-03 -5.40162e-03
       H -2.68486e-03  5.40095e-03 -5.04968e-03
       O  2.15872e-03 -6.89754e-04 -4.14077e-04
       H  1.71439e-03  2.09436e-03  8.41027e-03
       H -4.01526e-03  3.16550e-04  9.79470e-04
       O  2.48775e-04  4.03829e-04  1.27033e-03
       H -3.27268e-03  1.25400e-03 -4.44474e-03
       H -4.92539e-03  9.28671e-04 -9.80895e-04
       O  8.66877e-04  8.11122e-05 -8.86064e-04
       H  1.37637e-03  1.08317e-03 -4.41054e-03
       H  5.59150e-04 -2.64866e-03  2.34284e-03
       O -2.94845e-05  1.17187e-04 -3.36048e-04
       H  9.57600e-03 -2.89241e-03 -5.97314e-04
       H -3.45363e-04 -5.19406e-03 -8.00566e-04
       O -3.67704e-05 -7.68971e-04 -3.02707e-05
       H  1.12645e-03 -1.26160e-03  6.56567e-03
       H  5.97225e-03  7.09172e-03  2.23444e-03
       O  7.16325e-04  2.56662e-04  6.25908e-04
       H  3.44466e-03 -2.10984e-03 -1.60120e-03
       H -1.70082e-04  6.92318e-04 -1.46386e-03
       O -1.35225e-03  8.30982e-04  3.79750e-04
       H  1.94315e-03  1.19236e-04  1.85238e-03
       H -1.51668e-03  1.70575e-03 -1.79073e-03
       O -6.70107e-04  6.91834e-04 -6.91696e-04
       H -2.86385e-03  2.02928e-03 -6.03504e-03
       H  7.04153e-03 -4.14840e-03 -8.18687e-04
       O  1.27166e-03  4.39084e-04  1.10634e-03
       H -1.00298e-03  2.05398e-03  5.32257e-05
       H -3.15631e-04  2.30244e-03 -2.06362e-03
       O -2.26281e-04 -1.41035e-03  1.46336e-04
       H  9.58235e-04  1.06675e-03  2.00370e-03
       H -4.29778e-03  7.26489e-03  3.21645e-03
       O  1.54685e-03  8.88296e-04  1.44763e-03
       H  4.73134e-03 -1.21846e-03  1.46941e-03
       H -5.38828e-03  4.70185e-03  2.15025e-03
       O -6.66603e-04  2.56786e-05 -1.09233e-04
       H  3.02305e-03  5.48422e-03  1.42083e-03
       H  4.36893e-04 -1.32623e-03 -4.83626e-03
       O  4.64839e-04  1.03490e-03  1.75273e-04
       H -1.33233e-03  2.09936e-03  1.65989e-03
       H  1.00504e-03 -1.47356e-05  8.76491e-04
       O -4.09745e-05  7.37275e-04 -4.44357e-04
       H  3.63937e-03 -1.35196e-03  1.51240e-04
       H -2.87418e-03  9.42167e-04 -6.22842e-04
       O  4.17320e-04  2.21073e-04  6.51196e-04
       H  1.94407e-03  3.97492e-03 -2.71138e-03
       H -2.21727e-03 -4.32860e-03 -4.30855e-03
       O  4.28412e-04  8.42288e-04  2.16772e-04
       H  2.24831e-03 -1.34892e-03  1.90805e-03
       H  2.42844e-03  3.62941e-03  6.08049e-03
       O -5.40352e-04  6.21189e-05 -1.34254e-03
       H -3.75429e-03  2.56661e-03  2.61186e-04
       H -4.52179e-03 -5.28004e-04 -9.86161e-04
       O  1.41603e-03 -2.14093e-04 -4.40083e-04
       H  2.93769e-03  4.83852e-04 -6.96548e-04
       H -2.34520e-03  6.15526e-03 -6.74216e-03
       O -1.02675e-03  3.28019e-04 -1.06860e-03
       H  6.63529e-03 -3.67703e-03 -1.15296e-03
       H -5.72431e-03  5.92486e-04  8.53727e-04
       O -3.34709e-04 -1.03991e-04  6.16789e-04
       H  3.25572e-03 -1.93413e-03  2.86948e-03
       H -4.90521e-03  8.31056e-04  2.65782e-03
       O -1.52019e-03 -3.45447e-05  1.98106e-03
       H -4.18349e-03 -4.22758e-03 -1.90698e-03
       H -1.48845e-03 -1.61283e-03 -6.02503e-04
       O  3.89596e-04 -6.82841e-04 -4.80323e-04
       H  2.57777e-03 -7.25777e-03 -2.07615e-03
       H -3.18423e-03  5.28234e-04 -9.72000e-04
       O  1.01521e-03  2.14419e-03 -3.74453e-05
       H  3.30969e-04 -8.45158e-03  9.03811e-04
       H -1.09288e-03 -1.20884e-03 -2.27884e-04
       O -9.36284e-04 -7.89846e-04  7.24205e-04
       H  4.43188e-03 -6.60841e-04  2.14123e-04
       H -3.16739e-03 -1.19877e-03  1.36416e-03
       O  8.87914e-04  3.52727e-04 -2.69158e-04
       H -1.44434e-03 -2.69190e-03 -7.41621e-04
       H  9.10214e-04  4.07440e-03  5.82486e-03
       O  2.59137e-03 -2.13564e-04 -5.22036e-04
       H  3.10972e-04 -6.96231e-03  1.19871e-03
       H -1.90922e-03 -3.20748e-03 -1.10811e-03
       O -4.64604e-04  2.77688e-04 -1.01202e-03
       H -5.44220e-03 -1.86369e-03  1.07097e-03
       H  6.77103e-03  2.41130e-03 -3.33382e-04
192
# CELL(abcABC):   16.99620    29.43815    27.67315    90.00000    90.00000    90.00000  Step:          30  Bead:      19 velocities{atomic_unit}  cell{atomic_unit}
       O -1.09317e-03 -1.26140e-03 -1.67252e-04
       H -2.52957e-03 -9.22864e-04  4.84277e-03
       H -2.72304e-03 -4.86202e-03  2.79843e-03
       O  2.56780e-04  1.01552e-03  1.30156e-03
       H -4.89556e-04 -8.31091e-04  2.99474e-03
       H  5.48129e-03 -1.73449e-03 -1.90868e-03
       O -1.40340e-04 -3.96810e-04 -8.98693e-04
       H -1.20312e-03  2.73085e-03  5.78846e-03
       H  2.14924e-04  1.27383e-03  2.65593e-03
       O -2.47410e-04  2.61878e-04  1.05695e-03
       H -9.98954e-04  6.26605e-03 -2.43269e-04
       H -1.15808e-03  3.68340e-03  3.99569e-03
       O -3.12716e-04 -8.01918e-04  1.22458e-03
       H -2.49016e-03  8.92840e-04 -4.39444e-03
       H  3.15102e-03  9.31120e-03 -2.62792e-03
       O  1.19171e-03  3.08853e-04 -1.85689e-04
       H -5.29518e-04  7.22752e-04  1.71730e-03
       H -2.83267e-03  2.10784e-03 -4.29506e-04
       O  3.50378e-04  2.06401e-05  7.81750e-04
       H  3.64680e-03  2.57494e-03  8.81905e-05
       H  6.35193e-03 -6.42794e-04 -2.09880e-03
       O -9.60571e-04  1.04752e-03  7.40533e-04
       H -2.80879e-04  2.26877e-03 -1.25337e-03
       H -3.44345e-04 -1.92606e-03  2.04771e-03
       O  1.27773e-03  8.86169e-05  3.40556e-04
       H -7.49266e-04  6.24622e-05  2.70854e-03
       H  3.57272e-03  2.87046e-03  4.58231e-03
       O  8.30903e-04 -1.97692e-04  5.51604e-05
       H -3.87258e-03  4.04152e-03  6.16195e-03
       H -1.39178e-03 -4.98799e-03 -2.42436e-04
       O -1.39898e-03  8.20611e-04  1.23817e-03
       H  1.19766e-03 -3.54820e-03 -8.77081e-04
       H  4.50669e-03 -3.22690e-04 -7.44548e-03
       O -7.80340e-04 -8.01468e-04  1.56005e-03
       H  4.66989e-03  9.43780e-04  2.04288e-03