192
# CELL(abcABC):   16.99620    29.43815    27.67315    90.00000    90.00000    90.00000  Step:           0  Bead:      26 velocities{atomic_unit}  cell{atomic_unit}
       O -5.63950e-04 -1.07132e-03  6.19580e-04
       H  3.37581e-04 -3.64480e-03 -6.31385e-04
       H  9.53581e-03  1.07662e-03  2.30360e-03
       O  1.01398e-03  5.72143e-04  2.21947e-03
       H -1.32724e-04  1.57015e-03  5.28419e-04
       H  3.81410e-04 -9.28222e-04 -4.44025e-03
       O  2.18533e-04  5.66285e-04 -2.52452e-03
       H -2.15253e-04 -1.47661e-03  7.01214e-04
       H  5.21038e-04  4.55986e-03  6.21750e-04
       O -1.49306e-03 -1.79349e-03  3.72256e-04
       H  2.78370e-03 -2.23958e-03  1.98761e-04
       H -7.12864e-04  9.14577e-04  2.51942e-03
       O  8.03413e-04  9.97505e-04  2.08458e-04
       H -2.49260e-03  1.51488e-03 -2.62388e-03
       H  6.54095e-03 -1.75416e-03 -5.29359e-03
       O -4.79785e-04  3.47444e-04 -8.41070e-04
       H -1.49832e-03 -4.77118e-03  9.69509e-04
       H -5.82531e-03 -1.39273e-04  2.82901e-03
       O -1.85288e-03 -8.77271e-04  1.68896e-03
       H -1.76702e-03 -1.12263e-03  1.77925e-03
       H -3.66366e-03 -2.29767e-03  5.25895e-04
       O -3.17329e-04 -4.64821e-04  9.79588e-04
       H  5.07312e-03 -3.06066e-03 -5.61521e-04
       H -2.56107e-03 -2.91758e-03  1.46756e-03
       O -4.50198e-04 -7.41216e-04  1.28037e-04
       H  2.58469e-03 -3.38537e-03  1.21100e-03
       H  2.15429e-03 -6.71353e-03 -2.18520e-03
       O  1.20394e-03  2.46106e-04  1.03989e-03
       H  3.86227e-03  2.82673e-03  5.48238e-04
       H  3.38092e-03 -6.35545e-03  3.62783e-03
       O  1.02530e-03 -8.10960e-04  7.50029e-04
       H -1.38471e-04 -3.71805e-03  5.36330e-04
       H -1.61819e-03  2.02753e-03 -3.98058e-03
       O -1.91114e-03  5.73868e-04 -8.20022e-04
       H -2.67321e-03 -1.21918e-03 -3.14478e-03
       H -2.03894e-04  8.67110e-03 -2.37957e-03
       O  5.39609e-04 -1.67576e-03  6.12835e-04
       H  5.51388e-03  2.35972e-03 -1.17026e-03
       H -1.97235e-03  6.65282e-03 -2.10719e-03
       O  1.10792e-03 -5.54935e-04 -8.27874e-04
       H  2.36228e-03  1.65653e-03  2.88054e-03
       H  1.04759e-03 -2.58015e-03 -1.67376e-03
       O  1.28118e-03 -3.64331e-04  4.82691e-04
       H -8.07648e-04  3.76739e-04  8.73335e-04
       H -6.65083e-03  2.70286e-03  4.09568e-03
       O -1.27492e-03 -1.16823e-03  7.97153e-04
       H  3.79499e-03  4.22825e-05 -3.64650e-03
       H -1.47783e-03 -3.65767e-03  2.70540e-03
       O -2.35273e-04  5.28396e-04 -1.99629e-05
       H -1.26802e-03 -5.33830e-03  2.87904e-03
       H  2.81974e-03  5.15993e-03  5.01374e-04
       O -1.18428e-03 -6.69492e-04  1.40586e-03
       H -2.01069e-03  6.13880e-03  2.13193e-03
       H  5.62031e-03  4.45621e-04  4.86486e-03
       O  3.84991e-04 -9.12130e-04 -1.23786e-03
       H -5.16954e-03 -4.05860e-04 -5.07290e-04
       H -6.11832e-03 -1.35392e-03 -2.83593e-03
       O  3.07582e-04  1.32504e-03  6.66153e-04
       H  4.00216e-03  7.14120e-03  3.03109e-03
       H -3.86426e-03  9.98586e-04  2.13015e-03
       O  7.70552e-04 -7.27992e-05 -1.30575e-03
       H  2.89979e-03  7.19191e-03  1.38749e-03
       H -2.12556e-03  1.09128e-03 -3.52573e-03
       O -9.60840e-04  7.47964e-04  1.45023e-04
       H -5.52983e-03 -4.14181e-03  5.27116e-03
       H  3.63938e-03 -1.60233e-03 -2.45868e-03
       O -1.70255e-04  1.62725e-03  4.68820e-04
       H  4.86417e-03 -1.57379e-03 -5.99382e-04
       H -5.11531e-03 -2.29893e-03  5.33259e-03
       O -3.99522e-04  2.49197e-03  8.31789e-04
       H  4.39374e-04 -2.80277e-03 -6.91950e-04
       H  2.05962e-03  2.45149e-03  3.07160e-03
       O  1.20303e-03  1.15434e-03  1.05544e-03
       H -2.81957e-04  7.43357e-03 -1.65085e-03
       H -7.46784e-04 -5.26857e-03 -2.59178e-03
       O -9.57925e-04 -9.31065e-06 -2.14563e-04
       H -8.75013e-03  2.88325e-03  1.31218e-03
       H -5.74768e-03  1.29758e-03 -2.52540e-03
       O  9.06322e-04  3.17371e-04 -2.14968e-04
       H  2.33307e-03 -4.32363e-03  1.07923e-03
       H  9.23422e-04 -3.53060e-04 -2.06104e-03
       O -2.17599e-03 -8.82972e-04 -6.36083e-04
       H -7.56321e-03 -1.53693e-03  1.65042e-03
       H  5.93336e-03 -1.28693e-03  1.20237e-03
       O  3.17392e-04 -9.59890e-04 -2.29475e-04
       H  2.54139e-03 -1.54475e-03  6.61208e-03
       H  1.70652e-03  2.70419e-03 -3.01679e-03
       O  5.53254e-04  4.95595e-04  1.69609e-03
       H  2.84174e-03  2.27981e-03  1.26503e-03
       H -4.57729e-03 -2.55141e-03 -2.79681e-03
       O -2.06532e-03  4.06962e-04  4.11064e-04
       H -4.33203e-04 -4.21506e-03 -5.03513e-04
       H  3.68975e-03 -2.37897e-04  2.97091e-03
       O  8.55980e-04 -2.13618e-04  2.17799e-04
       H -4.00821e-03 -1.67778e-03  1.69155e-03
       H -1.65510e-03  5.03209e-03  1.12823e-03
       O  7.04044e-04 -5.38277e-04 -1.78347e-03
       H -6.35079e-04  3.41503e-04  3.98323e-03
       H -7.38583e-03  2.86971e-03  3.69303e-04
       O  4.58735e-05  5.37877e-04  1.07257e-03
       H  1.55278e-03  1.26756e-03  1.15255e-03
       H  2.34912e-03  3.84365e-03 -1.34790e-03
       O  2.47558e-03 -1.58988e-04 -6.43675e-05
       H -1.33921e-03  1.91518e-03 -1.64554e-03
       H -2.25674e-03  5.75180e-03  3.93061e-03
       O  3.85123e-04 -4.50475e-04 -1.20324e-05
       H  2.06134e-03 -6.22692e-03 -7.61185e-04
       H -1.14860e-03  3.25910e-03  3.20402e-03
       O  2.35295e-04 -7.07237e-04  4.84707e-04
       H -9.17381e-03  9.34454e-04  2.88126e-03
       H  3.99658e-04  1.94773e-03 -4.91532e-03
       O -1.03101e-03 -5.63092e-05 -2.04614e-05
       H -2.69343e-03 -2.05279e-03 -3.01791e-03
       H  2.11241e-04  1.01380e-03  3.26449e-03
       O -1.76245e-04 -1.03376e-03  1.19487e-03
       H -5.46931e-03 -2.17689e-03 -1.06109e-03
       H  4.95734e-03  1.48393e-03 -8.46357e-04
       O  8.60937e-04  1.93636e-03 -7.06747e-04
       H  1.29257e-04  1.59255e-03  1.41832e-03
       H  1.25718e-03 -2.03966e-03 -3.71054e-03
       O -5.59203e-04  1.07626e-03 -3.32310e-04
       H -4.25863e-03  6.43244e-03 -7.79955e-03
       H  5.41937e-04  5.14682e-03 -1.00827e-03
       O  6.22109e-04 -1.22755e-03 -3.88417e-04
       H  4.51183e-03 -1.83169e-03 -5.48451e-04
       H  3.36049e-03  8.37482e-04  1.09166e-03
       O  1.05902e-04  2.89803e-04 -5.30202e-04
       H  6.79504e-04 -3.93415e-03 -4.76172e-03
       H -3.78106e-03 -2.18123e-03 -8.99436e-05
       O  5.67230e-04  1.67774e-03  5.49674e-04
       H  5.86683e-04 -5.25108e-03  1.90005e-03
       H -7.52868e-04  2.51611e-03  5.57091e-04
       O -1.65551e-03 -7.03940e-04  1.29683e-03
       H  1.27432e-03 -2.97237e-03 -2.50654e-03
       H -3.14996e-03  1.55691e-05  4.63846e-04
       O  5.98346e-04 -9.47712e-05 -4.70434e-04
       H  2.15199e-03 -2.06358e-04 -8.94596e-04
       H  1.23494e-03  4.44728e-03 -4.54130e-03
       O -5.64697e-06 -6.55929e-05  1.06367e-03
       H  1.71389e-03  1.79532e-03  5.42109e-03
       H  2.60825e-03  1.40735e-03  2.32431e-03
       O  5.65771e-04 -9.13806e-04  1.64405e-03
       H  3.10782e-03 -2.72856e-03 -1.36980e-03
       H  2.48056e-03 -2.15590e-04 -3.53600e-03
       O -1.80231e-03  2.40470e-04  2.00331e-03
       H  9.36819e-04  1.70455e-03  1.15366e-03
       H -1.54454e-03 -4.14393e-03 -4.28725e-03
       O  1.28837e-04  6.32693e-04 -2.55319e-05
       H  2.33662e-03  7.29153e-04 -9.42607e-04
       H -4.72965e-03  1.94654e-03  7.39605e-04
       O  3.47736e-04 -2.86795e-04 -1.06611e-04
       H -4.67134e-03  7.93030e-04  4.02950e-04
       H  2.93165e-04 -4.52719e-04  5.41478e-03
       O  3.51729e-04 -1.69890e-04  3.98936e-04
       H -1.09826e-03  2.22872e-04 -1.99149e-03
       H  1.56594e-04  9.00184e-04  1.38326e-04
       O  1.45225e-04  8.17082e-04  3.39765e-04
       H  3.29113e-03 -8.65799e-03 -1.37778e-03
       H  3.66089e-03  4.60015e-03 -2.63643e-03
       O  5.85035e-05 -2.13352e-03 -1.35409e-03
       H -3.74902e-03  3.81500e-03  3.41953e-04
       H  1.19735e-03  3.63710e-03  1.18485e-04
       O  1.03994e-03  9.34353e-04  8.21392e-04
       H -1.23334e-04 -1.86575e-03  2.01359e-03
       H -1.36100e-03 -1.37059e-03  2.59349e-04
       O  1.51404e-03  1.19515e-04 -1.37307e-03
       H  3.70648e-03  3.96781e-03  3.50278e-03
       H -1.21604e-03 -4.80782e-03  3.22591e-03
       O -1.38481e-03 -3.37597e-04 -2.10409e-04
       H  5.48256e-03 -4.88033e-03 -7.59647e-04
       H -5.88575e-03 -2.73139e-03 -1.36341e-03
       O -6.71348e-04 -1.45381e-03  1.30286e-04
       H -3.16522e-03  2.56628e-03 -3.74438e-03
       H  2.64807e-04 -2.86246e-03 -6.62682e-03
       O -5.35535e-04  1.40537e-03 -3.80507e-04
       H -2.04528e-03 -4.54291e-03  3.86574e-03
       H -2.54881e-04  9.66670e-03  1.31387e-03
       O -1.03210e-03  3.16721e-04  6.17703e-04
       H  2.26402e-03 -1.32814e-03  3.98636e-03
       H -1.84893e-04  3.27970e-03 -5.52126e-03
       O  9.78818e-04  1.22973e-03 -5.45210e-04
       H  1.02551e-03  2.20087e-03  3.36762e-03
       H -6.53753e-03 -1.37296e-04  1.99203e-03
       O -5.00459e-04 -2.18179e-04  2.57028e-04
       H  6.46448e-04  7.17155e-03  2.49820e-04
       H -8.19125e-04  3.11349e-03 -6.80631e-03
       O  7.75224e-04  9.64475e-04 -1.41869e-03
       H -2.04603e-03 -2.35356e-03  3.40657e-03
       H  2.91612e-03  5.03518e-03  7.60508e-03
       O  1.84493e-03 -5.75076e-05 -8.34070e-04
       H -3.32869e-03 -1.75681e-03  2.71831e-03
       H -1.73604e-03  2.13457e-03  4.40193e-03
192
# CELL(abcABC):   16.99620    29.43815    27.67315    90.00000    90.00000    90.00000  Step:          10  Bead:      26 velocities{atomic_unit}  cell{atomic_unit}
       O -1.22057e-04  8.46505e-04 -1.02434e-03
       H  2.09767e-03 -3.74532e-04  8.26915e-03
       H -1.56944e-03  8.05821e-03  1.48778e-03
       O -4.35678e-04 -1.30128e-04  5.89349e-04
       H -7.01963e-04 -1.86139e-03 -6.97315e-03
       H  1.39251e-03 -4.86053e-03 -3.08692e-03
       O -3.42303e-04  1.85357e-04 -9.49622e-04
       H  5.08496e-04 -1.39605e-03 -3.79089e-03
       H -3.75277e-03  3.43638e-03 -1.34910e-03
       O  7.10108e-04  9.07771e-04 -6.78866e-04
       H  4.04401e-03 -3.37582e-03 -2.81365e-03
       H  2.82577e-03 -3.04394e-03  4.91892e-03
       O -1.82954e-03 -1.95431e-03  4.58905e-04
       H  7.70302e-04  2.94309e-03 -1.24573e-05
       H  3.12033e-03  3.20754e-04  2.65395e-03
       O  9.36606e-04  1.27503e-03  6.41148e-04
       H  4.19152e-03  1.58077e-03  2.88806e-03
       H -4.37795e-03  4.93435e-03  1.57054e-03
       O -3.54581e-04  1.97701e-03  8.66100e-04
       H  1.76940e-03  1.66679e-03  2.42650e-03
       H -3.02577e-03 -3.48678e-03  1.97780e-03
       O  1.08063e-03  3.41376e-04  1.98813e-03
       H -8.46232e-03  3.05263e-03 -1.96296e-03
       H -5.35787e-03 -1.84678e-04  3.09501e-03
       O -5.38431e-04 -1.46410e-03 -9.52092e-05
       H  6.40015e-03 -1.14199e-04  9.57034e-04
       H -3.51572e-04  2.72960e-03  6.37223e-04
       O -2.19449e-04  4.96378e-04  2.49845e-03
       H  4.78647e-03 -3.14078e-03 -2.06052e-03
       H -2.23048e-03  2.72331e-03  9.83025e-04
       O  3.39113e-04  3.08632e-03 -1.22537e-03
       H  5.43948e-04  1.27036e-03  5.82660e-03
       H  3.07641e-03  4.90096e-03  6.10223e-03
       O  5.62085e-04  7.40571e-04  9.23477e-05
       H  2.30819e-03  2.25834e-03 -9.62351e-05
       H -1.46550e-03  3.82967e-04  4.20020e-03
       O -1.30442e-03  1.56420e-03 -5.66333e-04
       H -3.30891e-03  4.00870e-03 -4.81221e-03
       H -1.39936e-03  7.49239e-03  3.38987e-03
       O -1.52561e-04  2.78483e-04 -3.89002e-05
       H -2.44397e-03  2.64080e-03 -1.28162e-03
       H -6.53463e-04  7.69981e-04  1.96177e-03
       O -1.04128e-03  9.08794e-04 -3.00235e-04
       H -2.43710e-03  3.86731e-03  3.73342e-03
       H  2.32670e-03 -6.34653e-04  4.62573e-03
       O  5.60296e-04 -5.69012e-04 -4.75383e-05
       H  8.25691e-04  7.64709e-03  8.25203e-04
       H  2.28910e-03  4.65690e-03 -1.49942e-03
       O  1.98414e-04  2.08315e-04 -6.85151e-04
       H  8.59104e-04  3.18731e-03  4.89201e-03
       H -4.62373e-03  5.70222e-04  9.43030e-04
       O -4.57827e-04  4.94559e-04 -1.47484e-03
       H -6.89994e-03 -4.82887e-03 -2.37002e-03
       H -4.46199e-03 -2.66085e-03 -3.21233e-03
       O  3.61594e-04  7.37755e-04 -4.70171e-04
       H -3.99674e-03 -4.19583e-03 -5.95998e-03
       H -1.48809e-03 -3.05665e-03  1.30169e-03
       O -1.25699e-03 -9.76268e-04  3.46131e-04
       H  2.12511e-03 -6.69966e-03  4.48115e-03
       H  5.78193e-03 -3.95910e-03 -3.18969e-03
       O -7.11999e-04  2.79224e-04 -4.53439e-04
       H -1.38492e-04 -2.01801e-04 -1.54627e-03
       H  3.07839e-03 -2.61613e-03 -7.04853e-03
       O  2.53439e-04 -1.55673e-03  2.24083e-03
       H  4.71258e-03  2.43457e-03 -1.66162e-03
       H -7.33780e-04  7.99505e-04 -7.84644e-04
       O  5.89453e-06  9.85281e-04  1.25828e-03
       H  8.31669e-03  4.10763e-03  1.58775e-03
       H -9.22621e-04 -2.10235e-03 -5.46697e-03
       O -7.86610e-04 -5.97552e-04 -3.99098e-05
       H  3.70524e-03  1.49068e-03  6.56486e-03
       H -4.19477e-03  6.51251e-04  1.67182e-03
       O -6.30911e-04 -6.89436e-04  6.46338e-05
       H -2.67817e-03  4.96318e-03  8.65842e-04
       H  6.03013e-03 -2.64234e-03 -1.40797e-04
       O -7.55911e-04 -1.55704e-03 -4.46198e-04
       H  1.74458e-03  8.42453e-04 -6.31691e-03
       H  1.15655e-04 -5.75655e-04  4.39366e-03
       O  1.01971e-03 -6.31345e-04 -4.17710e-04
       H  2.71815e-03 -2.81571e-03  1.57695e-03
       H  4.61898e-03  2.18108e-04  9.37650e-04
       O  7.93961e-04  2.03487e-04  1.46792e-03
       H -1.99613e-04 -2.00533e-03 -1.20516e-03
       H  3.01739e-04 -6.20964e-03 -4.41622e-03
       O -9.40172e-04 -3.94026e-04 -6.24698e-04
       H -8.64079e-04  6.50131e-04 -2.19479e-03
       H  3.19539e-03 -6.90545e-05 -4.51855e-03
       O  4.70396e-05  1.24936e-03 -1.38987e-03
       H -2.24807e-03  4.92109e-03 -3.77443e-03
       H -1.51138e-03  4.59925e-03 -4.20802e-04
       O  2.04622e-04 -3.60868e-04  7.60313e-04
       H  5.31393e-03 -4.35320e-03  1.64158e-03
       H -2.22035e-03 -2.78305e-03  3.34734e-03
       O -2.61219e-04 -1.14640e-04  2.16685e-03
       H  5.05683e-03 -3.87775e-03  1.64709e-03
       H -1.23621e-03  4.28011e-04 -3.64572e-03
       O  1.22800e-03  1.79506e-04  1.58442e-03
       H -4.49067e-04 -1.52848e-03 -2.87261e-03
       H -4.49242e-03  4.88340e-03 -1.53658e-03
       O  8.30230e-04 -9.36417e-04  8.08277e-04
       H -2.17170e-03 -6.72144e-03  6.83980e-03
       H -3.54907e-03  5.81438e-04 -4.42407e-04
       O  4.40309e-04 -2.08921e-05  3.37892e-04
       H  7.81760e-03  6.68004e-04 -8.22231e-04
       H -9.68411e-04  2.71015e-03 -4.33176e-04
       O -3.17331e-04 -1.70182e-03  1.22358e-04
       H  4.93947e-03 -5.25159e-03 -3.04789e-03
       H -7.84490e-03 -2.02353e-03 -1.67039e-03
       O  1.94641e-03 -1.46187e-03  2.34813e-03
       H  9.06624e-04 -3.97532e-03  3.99043e-03
       H  6.72320e-03  1.85613e-03  1.78375e-03
       O -2.11882e-05 -2.77381e-04 -8.61092e-05
       H -6.80655e-04 -6.62634e-03  1.10062e-03
       H  1.98197e-03 -8.52954e-03 -1.42844e-04
       O  1.00621e-03  9.41960e-04 -1.49611e-03
       H -4.15455e-03  2.67513e-03 -8.56132e-04
       H -4.02454e-03  1.05851e-03 -1.74623e-04
       O  1.08595e-03  4.79199e-04  1.10752e-03
       H  1.54842e-03  1.73201e-03 -8.94158e-03
       H  2.46159e-04  6.62474e-03 -3.21447e-03
       O -2.12036e-03 -1.06503e-03 -1.84185e-03
       H  2.95970e-03  4.06096e-03  2.11148e-03
       H -3.24653e-03  6.40244e-03 -6.66757e-04
       O -5.36708e-04 -5.17752e-04 -7.20484e-04
       H -1.69543e-03 -3.11487e-03  2.44912e-03
       H  6.72250e-03 -4.19301e-03 -3.42266e-03
       O -1.45604e-03  8.25812e-05 -9.14661e-04
       H  5.48273e-03  3.27464e-03 -1.93026e-03
       H  2.95158e-03  2.08661e-03  3.11318e-03
       O -7.35732e-04  1.80064e-05 -1.08489e-03
       H  9.71823e-04 -2.97242e-03  4.80196e-03
       H  3.20776e-03 -2.96054e-03 -2.44804e-03
       O  1.33710e-04 -1.82259e-03 -5.73906e-04
       H -6.72215e-03  4.58779e-03 -1.34709e-03
       H  2.27673e-03 -4.15208e-03  5.78455e-03
       O -8.80445e-04 -2.32922e-04 -1.17945e-04
       H  4.60355e-03 -5.48745e-04 -4.20966e-03
       H  1.19818e-03 -3.48831e-03 -3.67634e-03
       O  9.48156e-04 -1.03229e-03 -1.34605e-03
       H -4.99565e-03  3.73257e-04  2.98871e-03
       H  9.56477e-04 -3.14795e-03  2.22252e-03
       O -1.26869e-03 -1.24307e-03 -2.82096e-04
       H  4.00762e-03  8.04466e-04 -1.95974e-03
       H -4.55323e-03  1.20768e-04 -2.86529e-05
       O -1.02382e-03  9.36016e-04  7.87026e-04
       H -1.54223e-03 -7.84223e-03 -6.49489e-03
       H -7.93591e-04 -1.03333e-03  2.40338e-03
       O  1.04255e-04  1.21101e-04  7.87402e-04
       H -8.83031e-05  1.44672e-03 -8.07370e-04
       H  8.88027e-03 -2.05154e-04 -2.03293e-03
       O  1.23877e-03 -1.24341e-03 -4.10738e-04
       H -1.94373e-03  9.50692e-04 -6.81253e-03
       H -3.82520e-03  7.67537e-03 -1.32373e-03
       O -1.39335e-04  1.75657e-04  6.75857e-06
       H -3.02592e-03  3.59251e-03 -6.15954e-03
       H  9.52305e-04  2.01019e-03 -3.97441e-03
       O -1.17054e-03 -1.68095e-03 -4.09888e-04
       H -1.35795e-03  7.03434e-04 -4.99751e-04
       H -2.91528e-03  2.26613e-04  6.61710e-03
       O  1.58477e-03 -2.60613e-04 -7.34520e-04
       H  4.49984e-03 -9.75029e-04 -6.30672e-04
       H -1.77052e-03  6.90527e-03  3.19517e-03
       O  1.42225e-04 -7.93757e-04 -2.80248e-04
       H  1.25603e-03  1.68454e-03  6.37140e-04
       H -1.34263e-03 -2.83660e-03  3.30309e-03
       O  9.05112e-05  4.35518e-05 -1.23656e-04
       H -2.68688e-03  5.95271e-03 -4.37092e-03
       H -1.26024e-03  6.12694e-03 -4.46552e-03
       O -1.06341e-04  4.83955e-05  1.46175e-03
       H  1.04373e-03  2.44473e-03 -4.57245e-03
       H  4.96530e-03  5.61846e-04  6.08858e-03
       O -2.31058e-04 -1.00629e-03 -3.73000e-05
       H  8.40689e-04 -3.01954e-05 -8.25108e-03
       H -1.31750e-03  2.18725e-03  7.42927e-03
       O -1.79911e-03  3.04309e-04  1.79237e-04
       H  4.52724e-03  5.15472e-03 -5.06498e-03
       H -1.40550e-03  5.78844e-03  1.15967e-03
       O -6.99115e-04  6.35182e-04 -4.10723e-04
       H  6.04046e-03  6.32115e-04  1.18060e-03
       H  2.73015e-04 -3.77535e-03 -9.28781e-04
       O -1.12542e-03 -2.21879e-04  9.89604e-04
       H -2.73203e-03 -1.79010e-03 -3.69681e-03
       H  3.48309e-04  4.55254e-03  3.17609e-03
       O -7.25407e-04 -5.37517e-05  3.31516e-04
       H -5.00537e-03 -2.16364e-03  1.40667e-03
       H -9.21770e-04 -3.06098e-03 -4.13902e-03
       O  1.64885e-04  3.94409e-04  8.12586e-04
       H  7.74319e-03  8.00641e-03  4.62807e-04
       H  5.55858e-03 -1.88502e-03 -1.83099e-03
       O  1.35752e-04 -1.68413e-03  5.65437e-04
       H -4.46148e-03  2.11027e-03 -7.15410e-03
       H  7.61055e-04  4.58510e-03 -3.97646e-03
192
# CELL(abcABC):   16.99620    29.43815    27.67315    90.00000    90.00000    90.00000  Step:          20  Bead:      26 velocities{atomic_unit}  cell{atomic_unit}
       O -2.95299e-04 -3.75896e-04 -4.26290e-05
       H -4.74900e-03  1.47608e-04  2.37042e-03
       H  1.68754e-03  8.55885e-03 -7.10164e-03
       O  5.75137e-04 -1.86928e-04 -1.14062e-03
       H -4.71694e-03 -5.41548e-03  1.44064e-03
       H -2.34885e-03  9.01259e-03  1.89239e-03
       O  1.16025e-03  1.05307e-04  1.80240e-03
       H -6.09414e-03 -1.68710e-03 -1.58401e-03
       H -3.66640e-03 -4.79608e-03 -2.49374e-04
       O  2.18389e-03 -6.88634e-04  1.77317e-03
       H  2.68852e-03 -5.85774e-03 -1.43179e-03
       H  4.72946e-04  1.51368e-03  6.34336e-03
       O  1.05979e-03  4.88127e-04 -1.25473e-03
       H -5.85521e-04  1.46080e-03  2.04155e-03
       H -1.94940e-05 -1.01262e-03  3.09004e-03
       O  1.06577e-04  4.81644e-04 -1.10255e-03
       H  3.31494e-04  3.75546e-04 -6.64683e-03
       H -6.13597e-03  2.45455e-03 -4.98308e-03
       O -8.58044e-04  5.99313e-04  1.11609e-03
       H -8.84900e-04  1.38761e-03 -1.88819e-03
       H -8.93549e-05  8.92974e-03 -1.05825e-04
       O -3.10850e-04 -8.27455e-04 -2.16422e-04
       H  4.70096e-03  7.02010e-03 -1.50273e-03
       H -1.61326e-03 -3.47506e-03 -3.37608e-03
       O -2.38719e-03  7.16236e-04 -3.24981e-04
       H  3.37242e-03  6.52109e-03 -6.95391e-03
       H -2.28479e-03 -2.86253e-04 -3.52724e-03
       O -4.43242e-04  1.98283e-03 -7.28541e-04
       H -4.63997e-03 -5.34943e-03 -2.11274e-03
       H  2.85585e-03 -8.87546e-04 -2.65872e-04
       O  5.91174e-04  3.83650e-04 -8.25899e-05
       H  1.38653e-04 -5.21606e-03 -7.68360e-03
       H -7.03532e-04 -5.40363e-03 -1.64495e-04
       O  2.95678e-04  1.03550e-03 -9.26290e-04
       H -6.23870e-04 -1.50768e-03 -9.17112e-04
       H  1.79047e-03 -4.07861e-04 -1.36659e-04
       O  1.73548e-04  6.65033e-04  1.13905e-04
       H  7.12701e-04 -3.11328e-03 -5.67476e-03
       H  4.14774e-03 -7.12405e-03 -3.96031e-03
       O  7.94689e-05  9.41604e-04 -1.52158e-03
       H  2.25037e-03  3.42224e-03 -2.26265e-03
       H -4.29228e-03 -8.13209e-04 -5.92878e-03
       O  7.00154e-04  1.00285e-03 -7.90355e-04
       H -4.30079e-03 -1.48750e-03  2.87516e-03
       H  1.46679e-03  4.74219e-03 -1.46108e-03
       O  1.04493e-04  1.02887e-03 -1.17423e-03
       H  1.47440e-03 -5.76412e-03  3.76836e-03
       H -1.75284e-03  1.28060e-03 -9.60143e-03
       O -7.34913e-04 -3.75422e-04 -1.40800e-03
       H -1.16524e-03  6.85515e-03  2.01174e-03
       H -2.54459e-03 -1.05831e-03  1.12294e-03
       O  3.24981e-04  7.98991e-04  1.18464e-03
       H  6.93448e-03  3.88578e-03  6.11255e-04
       H  4.34055e-03 -1.50433e-03  6.62687e-04
       O -5.53832e-04  1.92082e-03  2.10526e-04
       H -2.77119e-03 -6.24534e-03 -2.96035e-03
       H -1.97681e-03  6.61531e-03 -2.83501e-03
       O -4.40967e-04  1.45580e-03 -3.30517e-04
       H  4.74917e-03  9.67015e-04 -1.73335e-04
       H  8.61645e-04 -3.19511e-03  3.17289e-03
       O  1.18795e-03 -3.85716e-04 -6.48450e-04
       H -3.62910e-03  3.15356e-03 -3.04020e-03
       H -5.30693e-03 -3.31097e-03  6.02773e-04
       O -7.03555e-04  4.26378e-04  7.34653e-04
       H  2.88202e-03 -2.67678e-03 -3.09377e-03
       H -3.91452e-03 -2.25859e-03  2.69151e-03
       O  5.66036e-04  3.38474e-04  9.89862e-05
       H -1.86796e-04  9.01936e-04 -5.28262e-03
       H  4.57584e-03  3.67737e-04 -9.99443e-04
       O  3.35519e-04  6.30032e-05 -1.37416e-04
       H -6.04816e-03 -1.43664e-03  1.66334e-03
       H -4.66586e-03 -1.70307e-03 -4.49539e-03
       O -7.87127e-04 -1.24907e-03 -6.02670e-04
       H -3.12051e-03 -6.80890e-03  3.11533e-03
       H  1.80272e-03  5.02433e-03 -5.86907e-03
       O  2.23297e-04  1.72739e-03 -3.71154e-04
       H  3.74352e-03 -1.30279e-03 -1.32585e-03
       H  1.00650e-02 -3.13136e-03  2.86484e-03
       O -5.79015e-04  1.25095e-03 -1.14719e-03
       H -2.24257e-04  2.87496e-03 -7.72543e-03
       H -7.42798e-03  6.05587e-04  1.48806e-03
       O -1.43572e-03 -8.20849e-04 -1.03499e-03
       H -8.06501e-04  2.43551e-03  3.04428e-04
       H -2.79619e-03  5.68151e-04 -8.81449e-04
       O -4.80811e-04 -2.60499e-04 -3.28682e-04
       H  1.82227e-04 -5.10926e-04  1.45766e-02
       H  1.02902e-03 -4.54256e-03 -9.89031e-05
       O  4.10215e-04  3.90022e-04  9.39047e-04
       H  4.01316e-04  8.56952e-03 -4.89294e-03
       H  5.31621e-03 -2.15194e-04 -2.14537e-03
       O  4.50609e-04 -4.58258e-05  6.07559e-05
       H -2.68690e-03  1.75505e-03  3.25990e-03
       H -6.01848e-04  2.84067e-03  2.09967e-03
       O -7.17954e-04  1.26507e-03 -8.64528e-04
       H  2.26827e-04 -4.32607e-03 -5.10513e-03
       H  5.20334e-03  4.59254e-03 -4.29779e-03
       O -7.74135e-04 -8.95883e-04 -4.19089e-04
       H  3.23673e-03  1.38598e-03 -2.20396e-03
       H -4.60465e-03 -1.61741e-03  1.44973e-03
       O  4.38500e-05  1.24118e-03  1.10596e-03
       H -9.32510e-04 -1.93755e-03 -3.84694e-04
       H -1.71164e-03  4.45190e-03 -3.58977e-03
       O -1.50108e-03 -1.03834e-04 -5.10254e-04
       H -5.88691e-03 -4.53573e-03 -1.73264e-03
       H  1.77534e-03 -3.99143e-04 -1.29555e-06
       O -1.40172e-03  2.18380e-04  1.80993e-06
       H  1.49147e-03  2.47717e-03 -4.88503e-03
       H -1.07463e-03  2.80187e-03  5.10322e-03
       O -6.97900e-04 -8.35791e-04 -8.01432e-04
       H  4.47337e-03  6.14400e-03  5.15879e-03
       H -5.23609e-04  1.61921e-03  5.53282e-04
       O  1.32111e-03  7.49459e-04  1.60868e-04
       H  4.70085e-03 -5.74239e-03  1.81359e-03
       H -4.86993e-03 -2.64225e-03 -4.60613e-03
       O -9.14023e-04  1.22709e-03 -7.55530e-04
       H  1.91653e-03  9.44621e-04 -8.05075e-03
       H -1.63661e-03  2.68073e-03 -6.50579e-03
       O  1.62360e-03  1.04631e-04 -3.18054e-06
       H -6.56013e-03  3.16400e-03 -2.66419e-03
       H -9.98852e-04 -1.98663e-03 -5.14200e-03
       O  1.38246e-03  5.37357e-04  9.38415e-04
       H -1.58393e-03  1.17411e-03 -4.95595e-03
       H  8.89750e-03 -3.28647e-03 -6.83134e-04
       O  6.17531e-04  1.10955e-03  1.06928e-04
       H -4.49699e-04 -5.68442e-03 -2.27821e-03
       H  1.11198e-03 -4.13916e-03 -2.06644e-03
       O  7.36921e-04  1.74999e-03  7.66531e-04
       H  4.25571e-03 -3.97743e-03  2.41622e-03
       H  2.21504e-03  3.76245e-05 -4.12773e-03
       O -4.02151e-04  4.27268e-05 -2.14961e-04
       H -4.49419e-03  4.49448e-03 -6.60529e-04
       H -3.62172e-03 -1.01402e-03 -5.78836e-03
       O -1.54247e-04 -5.24712e-04 -6.91444e-04
       H  4.11857e-03  4.45476e-03  1.86805e-03
       H  4.09963e-03  2.07709e-03  5.30483e-03
       O  1.57083e-03  6.96138e-04 -4.90884e-04
       H -5.08544e-04  5.51716e-04  1.51988e-04
       H  2.60938e-03  1.52611e-03  2.32150e-03
       O  5.30158e-04  3.09341e-04 -1.20966e-03
       H  3.90925e-03 -3.72998e-04 -5.69341e-03
       H  1.33701e-03 -6.02700e-03 -3.08167e-03
       O -6.09640e-05  1.13880e-03  7.83322e-05
       H  4.93396e-03 -5.68175e-04  7.02890e-03
       H  1.39953e-04 -1.89598e-03 -2.44934e-03
       O  9.36250e-04 -1.59384e-03  1.11771e-03
       H  2.56994e-04  4.40661e-03 -4.04663e-03
       H -1.11129e-03 -1.52280e-03 -1.16892e-03
       O -1.97171e-03 -1.06159e-03 -1.01445e-03
       H -1.05399e-03 -4.49965e-03  4.59240e-03
       H  1.10707e-03 -4.97673e-04  6.28136e-03
       O -2.85640e-04 -3.95332e-04  4.59094e-04
       H -1.68375e-03  5.99265e-03  7.12831e-04
       H -2.55104e-03  3.29193e-03  3.17593e-03
       O -1.90696e-03 -1.23404e-03  3.62926e-04
       H -7.66710e-04  4.70806e-03 -6.51945e-04
       H  5.82819e-03 -4.15850e-03 -3.18110e-03
       O  1.21655e-03 -8.67745e-04  2.54028e-04
       H  7.18492e-04  4.15579e-03  1.00216e-03
       H  3.59112e-04  6.80580e-03  2.47077e-03
       O  1.55113e-03 -2.33051e-05 -5.64296e-05
       H  5.57168e-04 -1.62796e-03 -2.34173e-04
       H -2.22714e-03 -9.61323e-04  6.54524e-04
       O  8.81685e-05  6.61525e-04  2.92982e-04
       H -1.08656e-03  4.20917e-03  1.30537e-03
       H  4.40576e-03 -1.08278e-03 -3.48869e-03
       O -2.19324e-04 -4.31753e-04 -8.45026e-04
       H  3.39990e-03  5.34073e-03 -7.07816e-03
       H  3.44750e-03 -5.20402e-04  1.17185e-03
       O -5.03859e-04  6.53134e-04  9.97699e-04
       H  2.31251e-03 -7.96507e-03  5.34720e-03
       H -1.03548e-03 -2.18171e-03  2.92874e-03
       O  1.58914e-04  1.39354e-03  7.04484e-04
       H -7.80008e-04  3.93165e-03 -3.04639e-03
       H  7.30926e-04 -1.49382e-03  3.39248e-03
       O -1.64780e-03  1.10628e-03 -1.32177e-04
       H  3.34561e-03  4.49726e-03 -6.21798e-04
       H -3.38523e-03 -2.30856e-03  1.69965e-03
       O -1.54794e-04  2.40545e-04 -5.90513e-04
       H -1.76832e-04 -4.45699e-04  1.88217e-03
       H  2.39229e-03 -3.79513e-03  5.14217e-03
       O -7.65007e-04  4.41064e-04 -2.35628e-04
       H -6.35507e-03  5.08753e-03  2.17885e-03
       H -2.60962e-03 -3.55548e-03 -4.83023e-03
       O  2.10988e-03 -6.47671e-04 -1.51684e-03
       H  2.09236e-03  1.71088e-04  5.03376e-03
       H  2.70717e-03  4.17839e-05 -5.18781e-04
       O  3.43399e-04 -7.95065e-04  1.86392e-04
       H -4.06786e-03 -2.34994e-03 -5.51794e-03
       H -5.74886e-04  6.88491e-04 -6.20434e-04
       O  3.61505e-04  1.47946e-03 -8.20541e-04
       H  2.99098e-03 -1.34074e-03 -7.61594e-03
       H  3.21117e-03  6.13632e-04  3.37711e-03
192
# CELL(abcABC):   16.99620    29.43815    27.67315    90.00000    90.00000    90.00000  Step:          30  Bead:      26 velocities{atomic_unit}  cell{atomic_unit}
       O -1.04102e-03  1.84950e-03 -1.08517e-03
       H -2.28304e-03 -4.22491e-04 -8.10481e-04
       H  4.63821e-03 -5.93427e-03 -7.53181e-04
       O -6.74009e-04  1.29991e-03  1.60556e-03
       H  1.06499e-03  2.17534e-03  3.90117e-03
       H  3.83733e-03  2.55741e-03 -6.23814e-04
       O -9.05048e-05  7.77250e-04 -1.08902e-03
       H -4.10730e-03  3.76192e-03 -8.67800e-04
       H -6.88431e-04 -2.41986e-03 -7.55265e-03
       O -5.21339e-04  1.35613e-03 -1.40516e-03
       H -4.58461e-03  4.75535e-03 -3.17799e-03
       H -5.71847e-03  4.56849e-03 -4.17424e-03
       O  5.72368e-05 -6.49675e-04  1.00692e-03
       H -2.72115e-04  3.62359e-03 -1.14572e-03
       H  8.37526e-03  9.52187e-04 -2.85029e-03
       O -6.75963e-04 -8.96696e-04 -8.67403e-04
       H -2.39267e-03  6.68546e-03  2.99372e-03
       H  3.65860e-03 -7.27416e-04 -1.71825e-03
       O  6.08284e-04 -8.15021e-04  1.15651e-03
       H -6.42375e-03  2.30685e-03 -3.98131e-03
       H  9.82821e-04  6.43687e-05 -6.48591e-03
       O  1.71993e-04  1.12320e-03 -2.74536e-04
       H -3.75830e-03  7.72578e-04  1.40218e-03
       H  1.47443e-03 -3.40412e-03 -1.85397e-04
       O  6.63360e-05  3.66910e-04 -4.33516e-04
       H  3.43795e-03  3.12759e-03 -1.16990e-03
       H -7.41202e-03  3.32540e-03 -7.53950e-03
       O -2.38244e-04 -2.69292e-03 -9.07622e-04
       H -2.24681e-03  2.24050e-03 -2.79544e-03
       H -2.33059e-03 -2.23279e-03 -7.71523e-03
       O -1.36363e-03 -6.57049e-04  1.68251e-03
       H  3.59166e-03 -3.79946e-04  1.02668e-03
       H  3.25343e-03 -1.74314e-03 -8.28302e-04
       O -8.88722e-05  1.73592e-03 -7.84543e-04
       H  4.94513e-03 -2.36792e-04 -4.21516e-03