192
# CELL(abcABC):   16.99620    29.43815    27.67315    90.00000    90.00000    90.00000  Step:           0  Bead:      12 positions{atomic_unit}  cell{atomic_unit}
       O -8.22215e+00 -9.94239e+00 -1.31733e+01
       H  7.30664e+00 -1.09711e+01 -1.36322e+01
       H -6.70615e+00 -1.09482e+01 -1.35006e+01
       O -3.97298e+00 -2.58228e+00 -1.31734e+01
       H -5.44033e+00 -3.61131e+00 -1.36317e+01
       H -2.45697e+00 -3.58820e+00 -1.35005e+01
       O -3.95756e+00 -1.25543e+01 -7.82386e-01
       H -3.95604e+00 -1.43515e+01 -2.29143e-01
       H -4.14759e+00 -1.25671e+01 -2.59983e+00
       O -8.20667e+00 -5.19495e+00 -7.82227e-01
       H -8.20527e+00 -6.99211e+00 -2.28860e-01
       H -8.39642e+00 -5.20788e+00 -2.59970e+00
       O -4.52495e+00 -1.21366e+01 -6.25523e+00
       H -6.04104e+00 -1.11308e+01 -6.58223e+00
       H -3.05766e+00 -1.11077e+01 -6.71383e+00
       O  8.22247e+00 -4.77716e+00 -6.25561e+00
       H  6.70639e+00 -3.77128e+00 -6.58235e+00
       H -7.30644e+00 -3.74813e+00 -6.71411e+00
       O  8.20650e+00 -9.52435e+00 -7.70064e+00
       H  8.39647e+00 -9.51190e+00 -9.51809e+00
       H  8.20529e+00 -7.72704e+00 -7.14768e+00
       O -4.54027e+00 -2.16431e+00 -7.70075e+00
       H -4.35006e+00 -2.15153e+00 -9.51816e+00
       H -4.54166e+00 -3.67089e-01 -7.14744e+00
       O -8.22211e+00 -9.94193e+00  6.63469e-01
       H  7.30672e+00 -1.09707e+01  2.04633e-01
       H -6.70609e+00 -1.09478e+01  3.36365e-01
       O -3.97290e+00 -2.58257e+00  6.63081e-01
       H -5.44032e+00 -3.61148e+00  2.04655e-01
       H -2.45688e+00 -3.58848e+00  3.35971e-01
       O -3.95760e+00 -1.25545e+01  1.30538e+01
       H -3.95614e+00 -1.43517e+01  1.36071e+01
       H -4.14757e+00 -1.25673e+01  1.12363e+01
       O -8.20656e+00 -5.19529e+00  1.30545e+01
       H -8.20517e+00 -6.99250e+00  1.36078e+01
       H -8.39634e+00 -5.20824e+00  1.12370e+01
       O -4.52490e+00 -1.21367e+01  7.58138e+00
       H -6.04102e+00 -1.11309e+01  7.25435e+00
       H -3.05757e+00 -1.11078e+01  7.12272e+00
       O  8.22232e+00 -4.77760e+00  7.58065e+00
       H  6.70627e+00 -3.77169e+00  7.25392e+00
       H -7.30657e+00 -3.74862e+00  7.12211e+00
       O  8.20656e+00 -9.52478e+00  6.13597e+00
       H  8.39651e+00 -9.51229e+00  4.31849e+00
       H  8.20527e+00 -7.72747e+00  6.68889e+00
       O -4.54025e+00 -2.16471e+00  6.13560e+00
       H -4.34999e+00 -2.15183e+00  4.31818e+00
       H -4.54168e+00 -3.67533e-01  6.68897e+00
       O -8.22212e+00  4.77724e+00 -1.31733e+01
       H  7.30671e+00  3.74833e+00 -1.36320e+01
       H -6.70607e+00  3.77135e+00 -1.35002e+01
       O -3.97288e+00  1.21369e+01 -1.31734e+01
       H -5.44030e+00  1.11079e+01 -1.36317e+01
       H -2.45689e+00  1.11310e+01 -1.35006e+01
       O -3.95757e+00  2.16435e+00 -7.82368e-01
       H -3.95607e+00  3.67109e-01 -2.29207e-01
       H -4.14756e+00  2.15166e+00 -2.59983e+00
       O -8.20667e+00  9.52420e+00 -7.81868e-01
       H -8.20527e+00  7.72699e+00 -2.28645e-01
       H -8.39652e+00  9.51128e+00 -2.59932e+00
       O -4.52494e+00  2.58246e+00 -6.25501e+00
       H -6.04100e+00  3.58821e+00 -6.58223e+00
       H -3.05758e+00  3.61139e+00 -6.71360e+00
       O  8.22236e+00  9.94146e+00 -6.25587e+00
       H  6.70631e+00  1.09474e+01 -6.58279e+00
       H -7.30653e+00  1.09705e+01 -6.71435e+00
       O  8.20665e+00  5.19438e+00 -7.70097e+00
       H  8.39659e+00  5.20693e+00 -9.51844e+00
       H  8.20533e+00  6.99167e+00 -7.14797e+00
       O -4.54026e+00  1.25545e+01 -7.70081e+00
       H -4.34992e+00  1.25674e+01 -9.51823e+00
       H -4.54169e+00  1.43517e+01 -7.14749e+00
       O -8.22210e+00  4.77691e+00  6.62996e-01
       H  7.30665e+00  3.74808e+00  2.04431e-01
       H -6.70613e+00  3.77091e+00  3.36028e-01
       O -3.97279e+00  1.21369e+01  6.63306e-01
       H -5.44019e+00  1.11079e+01  2.05006e-01
       H -2.45681e+00  1.11309e+01  3.36133e-01
       O -3.95757e+00  2.16479e+00  1.30545e+01
       H -3.95616e+00  3.67575e-01  1.36077e+01
       H -4.14769e+00  2.15200e+00  1.12370e+01
       O -8.20659e+00  9.52434e+00  1.30546e+01
       H -8.20522e+00  7.72713e+00  1.36079e+01
       H -8.39644e+00  9.51145e+00  1.12371e+01
       O -4.52499e+00  2.58228e+00  7.58148e+00
       H -6.04100e+00  3.58814e+00  7.25437e+00
       H -3.05766e+00  3.61126e+00  7.12297e+00
       O  8.22229e+00  9.94203e+00  7.58108e+00
       H  6.70627e+00  1.09480e+01  7.25419e+00
       H -7.30655e+00  1.09710e+01  7.12260e+00
       O  8.20668e+00  5.19493e+00  6.13567e+00
       H  8.39670e+00  5.20749e+00  4.31823e+00
       H  8.20535e+00  6.99219e+00  6.68874e+00
       O -4.54018e+00  1.25546e+01  6.13603e+00
       H -4.34989e+00  1.25674e+01  4.31861e+00
       H -4.54161e+00  1.43518e+01  6.68925e+00
       O  2.75877e-01 -9.94198e+00 -1.31737e+01
       H -1.19147e+00 -1.09709e+01 -1.36323e+01
       H  1.79191e+00 -1.09478e+01 -1.35009e+01
       O  4.52479e+00 -2.58220e+00 -1.31736e+01
       H  3.05750e+00 -3.61120e+00 -1.36322e+01
       H  6.04084e+00 -3.58815e+00 -1.35003e+01
       O  4.54038e+00 -1.25538e+01 -7.82378e-01
       H  4.54166e+00 -1.43510e+01 -2.29173e-01
       H  4.35042e+00 -1.25666e+01 -2.59983e+00
       O  2.91382e-01 -5.19489e+00 -7.82498e-01
       H  2.92775e-01 -6.99208e+00 -2.29179e-01
       H  1.01240e-01 -5.20770e+00 -2.59994e+00
       O  3.97307e+00 -1.21369e+01 -6.25482e+00
       H  2.45707e+00 -1.11310e+01 -6.58187e+00
       H  5.44043e+00 -1.11080e+01 -6.71350e+00
       O -2.76167e-01 -4.77714e+00 -6.25484e+00
       H -1.79215e+00 -3.77120e+00 -6.58193e+00
       H  1.19122e+00 -3.74822e+00 -6.71327e+00
       O -2.91294e-01 -9.52406e+00 -7.70061e+00
       H -1.01153e-01 -9.51128e+00 -9.51804e+00
       H -2.92737e-01 -7.72684e+00 -7.14734e+00
       O  3.95740e+00 -2.16468e+00 -7.70029e+00
       H  4.14711e+00 -2.15178e+00 -9.51779e+00
       H  3.95613e+00 -3.67477e-01 -7.14700e+00
       O  2.75838e-01 -9.94166e+00  6.63265e-01
       H -1.19143e+00 -1.09706e+01  2.04532e-01
       H  1.79197e+00 -1.09474e+01  3.36068e-01
       O  4.52471e+00 -2.58218e+00  6.62891e-01
       H  3.05743e+00 -3.61117e+00  2.04240e-01
       H  6.04080e+00 -3.58806e+00  3.36089e-01
       O  4.54037e+00 -1.25543e+01  1.30539e+01
       H  4.54173e+00 -1.43516e+01  1.36070e+01
       H  4.35050e+00 -1.25670e+01  1.12364e+01
       O  2.91297e-01 -5.19502e+00  1.30541e+01
       H  2.92732e-01 -6.99225e+00  1.36074e+01
       H  1.01206e-01 -5.20786e+00  1.12367e+01
       O  3.97310e+00 -1.21368e+01  7.58177e+00
       H  2.45707e+00 -1.11309e+01  7.25464e+00
       H  5.44051e+00 -1.11080e+01  7.12302e+00
       O -2.76100e-01 -4.77767e+00  7.58136e+00
       H -1.79210e+00 -3.77177e+00  7.25428e+00
       H  1.19125e+00 -3.74871e+00  7.12290e+00
       O -2.91340e-01 -9.52458e+00  6.13593e+00
       H -1.01282e-01 -9.51181e+00  4.31852e+00
       H -2.92762e-01 -7.72734e+00  6.68916e+00
       O  3.95728e+00 -2.16475e+00  6.13602e+00
       H  4.14704e+00 -2.15175e+00  4.31853e+00
       H  3.95603e+00 -3.67615e-01  6.68942e+00
       O  2.75872e-01  4.77775e+00 -1.31735e+01
       H -1.19145e+00  3.74868e+00 -1.36320e+01
       H  1.79192e+00  3.77189e+00 -1.35005e+01
       O  4.52473e+00  1.21369e+01 -1.31737e+01
       H  3.05744e+00  1.11080e+01 -1.36325e+01
       H  6.04082e+00  1.11311e+01 -1.35004e+01
       O  4.54033e+00  2.16480e+00 -7.82502e-01
       H  4.54166e+00  3.67553e-01 -2.29384e-01
       H  4.35052e+00  2.15214e+00 -2.60000e+00
       O  2.91442e-01  9.52423e+00 -7.82681e-01
       H  2.92837e-01  7.72701e+00 -2.29452e-01
       H  1.01299e-01  9.51146e+00 -2.60013e+00
       O  3.97319e+00  2.58230e+00 -6.25496e+00
       H  2.45717e+00  3.58819e+00 -6.58198e+00
       H  5.44056e+00  3.61109e+00 -6.71379e+00
       O -2.76125e-01  9.94167e+00 -6.25515e+00
       H -1.79212e+00  1.09476e+01 -6.58222e+00
       H  1.19126e+00  1.09706e+01 -6.71377e+00
       O -2.91369e-01  5.19475e+00 -7.70046e+00
       H -1.01380e-01  5.20765e+00 -9.51793e+00
       H -2.92793e-01  6.99195e+00 -7.14718e+00
       O  3.95737e+00  1.25543e+01 -7.70076e+00
       H  4.14703e+00  1.25673e+01 -9.51824e+00
       H  3.95606e+00  1.43514e+01 -7.14726e+00
       O  2.75794e-01  4.77734e+00  6.62959e-01
       H -1.19152e+00  3.74832e+00  2.04499e-01
       H  1.79186e+00  3.77147e+00  3.35887e-01
       O  4.52464e+00  1.21373e+01  6.62988e-01
       H  3.05745e+00  1.11082e+01  2.04218e-01
       H  6.04076e+00  1.11314e+01  3.36450e-01
       O  4.54041e+00  2.16499e+00  1.30543e+01
       H  4.54178e+00  3.67749e-01  1.36074e+01
       H  4.35054e+00  2.15228e+00  1.12368e+01
       O  2.91308e-01  9.52457e+00  1.30538e+01
       H  2.92715e-01  7.72735e+00  1.36071e+01
       H  1.01225e-01  9.51181e+00  1.12363e+01
       O  3.97315e+00  2.58235e+00  7.58152e+00
       H  2.45713e+00  3.58829e+00  7.25455e+00
       H  5.44048e+00  3.61122e+00  7.12279e+00
       O -2.76008e-01  9.94202e+00  7.58171e+00
       H -1.79205e+00  1.09479e+01  7.25468e+00
       H  1.19134e+00  1.09710e+01  7.12317e+00
       O -2.91416e-01  5.19510e+00  6.13606e+00
       H -1.01371e-01  5.20795e+00  4.31863e+00
       H -2.92777e-01  6.99228e+00  6.68938e+00
       O  3.95729e+00  1.25546e+01  6.13612e+00
       H  4.14688e+00  1.25676e+01  4.31864e+00
       H  3.95603e+00  1.43518e+01  6.68952e+00
192
# CELL(abcABC):   16.99620    29.43815    27.67315    90.00000    90.00000    90.00000  Step:          10  Bead:      12 positions{atomic_unit}  cell{atomic_unit}
       O -8.23833e+00 -9.97583e+00 -1.31476e+01
       H  7.16443e+00 -1.09473e+01 -1.37507e+01
       H -6.70692e+00 -1.11119e+01 -1.36070e+01
       O -3.99143e+00 -2.55398e+00 -1.31360e+01
       H -5.59769e+00 -3.78985e+00 -1.36685e+01
       H -2.49630e+00 -3.61921e+00 -1.36282e+01
       O -3.97444e+00 -1.24975e+01 -7.72029e-01
       H -3.96914e+00 -1.43715e+01 -4.21915e-01
       H -4.33434e+00 -1.27221e+01 -2.71282e+00
       O -8.16964e+00 -5.17789e+00 -7.95963e-01
       H -8.15924e+00 -6.80291e+00 -3.51531e-01
       H -8.36361e+00 -5.13932e+00 -2.65895e+00
       O -4.43672e+00 -1.21997e+01 -6.29247e+00
       H -6.22060e+00 -1.10335e+01 -6.45322e+00
       H -2.79888e+00 -1.11516e+01 -6.59800e+00
       O  8.16206e+00 -4.82903e+00 -6.25427e+00
       H  6.75427e+00 -3.71517e+00 -6.67655e+00
       H -6.91384e+00 -3.63150e+00 -6.81026e+00
       O  8.19712e+00 -9.53595e+00 -7.63324e+00
       H  8.18324e+00 -9.39887e+00 -9.49184e+00
       H  7.96343e+00 -7.64973e+00 -7.10199e+00
       O -4.54788e+00 -2.12416e+00 -7.70901e+00
       H -4.09920e+00 -2.19216e+00 -9.39479e+00
       H -4.58554e+00 -3.59788e-01 -7.29218e+00
       O -8.20720e+00 -9.90781e+00  6.37732e-01
       H  7.11079e+00 -1.08619e+01 -1.43847e-01
       H -6.76006e+00 -1.09452e+01  1.80478e-01
       O -3.95423e+00 -2.61658e+00  7.40286e-01
       H -5.48176e+00 -3.72370e+00  3.29568e-01
       H -2.63874e+00 -3.79129e+00  5.70075e-01
       O -3.98649e+00 -1.24809e+01  1.30179e+01
       H -4.01887e+00 -1.45813e+01  1.35669e+01
       H -4.13629e+00 -1.26801e+01  1.12156e+01
       O -8.15250e+00 -5.13529e+00  1.30394e+01
       H -8.08213e+00 -7.00747e+00  1.36572e+01
       H -8.44463e+00 -5.30722e+00  1.09851e+01
       O -4.46342e+00 -1.21543e+01  7.65016e+00
       H -6.20978e+00 -1.12307e+01  7.36883e+00
       H -3.07461e+00 -1.10400e+01  6.93197e+00
       O  8.20737e+00 -4.74945e+00  7.58620e+00
       H  6.69068e+00 -3.62455e+00  7.17499e+00
       H -7.30425e+00 -3.75566e+00  7.17339e+00
       O  8.23899e+00 -9.51345e+00  6.13119e+00
       H  8.05762e+00 -9.80329e+00  4.34303e+00
       H  8.12407e+00 -7.76261e+00  7.07159e+00
       O -4.53926e+00 -2.08786e+00  6.18341e+00
       H -4.13397e+00 -2.24104e+00  4.41676e+00
       H -4.59219e+00 -4.67540e-01  6.48924e+00
       O -8.19826e+00  4.76452e+00 -1.32933e+01
       H  7.35721e+00  3.64337e+00 -1.33404e+01
       H -6.75477e+00  3.70684e+00 -1.33617e+01
       O -3.94419e+00  1.21343e+01 -1.32377e+01
       H -5.67278e+00  1.10372e+01 -1.37181e+01
       H -2.46644e+00  1.10357e+01 -1.32854e+01
       O -3.95547e+00  2.17359e+00 -7.42104e-01
       H -4.21050e+00  3.74225e-01 -2.65637e-02
       H -4.15152e+00  2.21036e+00 -2.70893e+00
       O -8.29159e+00  9.52442e+00 -7.45473e-01
       H -8.18620e+00  7.53747e+00 -3.33881e-01
       H -8.25800e+00  9.54029e+00 -2.76344e+00
       O -4.48105e+00  2.49131e+00 -6.22012e+00
       H -6.40103e+00  3.39211e+00 -6.50699e+00
       H -3.13998e+00  3.55012e+00 -6.67171e+00
       O  8.24330e+00  9.96046e+00 -6.21359e+00
       H  6.77702e+00  1.07737e+01 -6.54101e+00
       H -7.20637e+00  1.09784e+01 -6.53459e+00
       O  8.13148e+00  5.23212e+00 -7.68413e+00
       H  8.55044e+00  5.08790e+00 -9.53145e+00
       H  8.02460e+00  7.07629e+00 -7.06581e+00
       O -4.56382e+00  1.24828e+01 -7.71161e+00
       H -4.40407e+00  1.26168e+01 -9.44015e+00
       H -4.62838e+00  1.44899e+01 -7.56301e+00
       O -8.23872e+00  4.77473e+00  6.49144e-01
       H  7.40860e+00  3.85381e+00  4.88812e-01
       H -6.44232e+00  3.52867e+00  4.79539e-01
       O -3.95745e+00  1.20850e+01  5.91874e-01
       H -5.53128e+00  1.10129e+01  1.58265e-01
       H -2.51389e+00  1.09592e+01  5.19445e-01
       O -3.95533e+00  2.14139e+00  1.30423e+01
       H -3.90421e+00  3.43209e-01  1.32803e+01
       H -4.32843e+00  1.99645e+00  1.13549e+01
       O -8.23239e+00  9.61317e+00  1.29933e+01
       H -8.23749e+00  7.75421e+00  1.35241e+01
       H -8.61845e+00  9.24991e+00  1.13667e+01
       O -4.51548e+00  2.57905e+00  7.55491e+00
       H -5.84076e+00  3.48835e+00  7.28889e+00
       H -2.93893e+00  3.51121e+00  7.34566e+00
       O  8.27616e+00  9.90184e+00  7.59621e+00
       H  6.67733e+00  1.08886e+01  7.24435e+00
       H -7.26021e+00  1.09873e+01  7.18183e+00
       O  8.22887e+00  5.16800e+00  6.17771e+00
       H  8.12157e+00  5.35473e+00  4.22155e+00
       H  8.40872e+00  7.06359e+00  6.75077e+00
       O -4.55097e+00  1.25549e+01  6.16350e+00
       H -4.61914e+00  1.26787e+01  4.32382e+00
       H -4.26940e+00  1.43679e+01  6.95405e+00
       O  3.34260e-01 -9.87918e+00 -1.32378e+01
       H -1.09702e+00 -1.09825e+01 -1.35454e+01
       H  1.83896e+00 -1.10091e+01 -1.35497e+01
       O  4.55283e+00 -2.52107e+00 -1.31854e+01
       H  2.89334e+00 -3.53854e+00 -1.34428e+01
       H  5.97611e+00 -3.44364e+00 -1.34751e+01
       O  4.59350e+00 -1.26287e+01 -7.84325e-01
       H  4.52476e+00 -1.42901e+01 -2.40225e-01
       H  4.32197e+00 -1.26830e+01 -2.42075e+00
       O  2.72288e-01 -5.19221e+00 -7.40099e-01
       H  2.29226e-01 -7.11935e+00 -1.00933e-01
       H -8.56801e-02 -5.11397e+00 -2.72230e+00
       O  4.01464e+00 -1.20979e+01 -6.20982e+00
       H  2.33533e+00 -1.09110e+01 -6.94572e+00
       H  5.51816e+00 -1.09152e+01 -6.86778e+00
       O -2.13910e-01 -4.85348e+00 -6.29768e+00
       H -2.06889e+00 -3.78614e+00 -6.94826e+00
       H  1.18895e+00 -3.72595e+00 -6.58250e+00
       O -2.37764e-01 -9.58326e+00 -7.67504e+00
       H -1.59536e-02 -9.92783e+00 -9.76799e+00
       H -2.63434e-01 -7.76480e+00 -7.16993e+00
       O  3.94880e+00 -2.23709e+00 -7.69452e+00
       H  3.94885e+00 -2.10681e+00 -9.48603e+00
       H  4.29806e+00 -5.05621e-01 -7.22877e+00
       O  2.77275e-01 -1.00435e+01  7.17240e-01
       H -1.01149e+00 -1.09402e+01  1.62332e-01
       H  1.95732e+00 -1.08715e+01  1.71431e-01
       O  4.57504e+00 -2.63994e+00  5.97503e-01
       H  3.06596e+00 -3.72943e+00  5.25069e-01
       H  6.15108e+00 -3.59003e+00  2.78213e-01
       O  4.62094e+00 -1.25116e+01  1.30195e+01
       H  4.52880e+00 -1.45136e+01  1.36472e+01
       H  4.06340e+00 -1.28363e+01  1.13728e+01
       O  3.18121e-01 -5.15069e+00  1.30300e+01
       H  6.31163e-01 -6.86790e+00  1.36526e+01
       H  2.52752e-02 -5.09408e+00  1.11377e+01
       O  3.95433e+00 -1.21617e+01  7.56386e+00
       H  2.58322e+00 -1.09806e+01  7.36835e+00
       H  5.31713e+00 -1.11707e+01  7.04615e+00
       O -2.53116e-01 -4.75220e+00  7.59710e+00
       H -2.00697e+00 -3.79068e+00  7.47120e+00
       H  1.12928e+00 -3.75785e+00  7.14571e+00
       O -2.17919e-01 -9.53187e+00  6.12035e+00
       H -2.38876e-01 -9.00781e+00  4.17479e+00
       H -2.37349e-01 -7.71934e+00  6.73673e+00
       O  4.00005e+00 -2.22467e+00  6.10397e+00
       H  4.32602e+00 -1.79242e+00  4.30604e+00
       H  3.96460e+00 -9.30373e-02  6.72064e+00
       O  2.45131e-01  4.78851e+00 -1.31686e+01
       H -1.37609e+00  3.85322e+00 -1.38018e+01
       H  1.71250e+00  3.95465e+00 -1.37826e+01
       O  4.53802e+00  1.21217e+01 -1.31540e+01
       H  3.26810e+00  1.11357e+01 -1.34430e+01
       H  6.01310e+00  1.10432e+01 -1.36258e+01
       O  4.53576e+00  2.14949e+00 -7.92207e-01
       H  4.73668e+00  3.90235e-01 -3.08303e-02
       H  4.33685e+00  2.10569e+00 -2.75835e+00
       O  2.67625e-01  9.56507e+00 -7.72184e-01
       H  2.89413e-01  7.88262e+00 -6.00727e-02
       H  6.41021e-02  9.41138e+00 -2.50248e+00
       O  3.97727e+00  2.57631e+00 -6.21346e+00
       H  2.55820e+00  3.71971e+00 -6.45935e+00
       H  5.57429e+00  3.49046e+00 -6.73548e+00
       O -2.34698e-01  9.99362e+00 -6.30227e+00
       H -1.70535e+00  1.10267e+01 -6.53475e+00
       H  1.36782e+00  1.08695e+01 -6.93599e+00
       O -2.84395e-01  5.23275e+00 -7.71419e+00
       H -1.53575e-01  5.22317e+00 -9.33179e+00
       H -9.86914e-02  7.24282e+00 -7.24268e+00
       O  3.88612e+00  1.25071e+01 -7.62895e+00
       H  4.30371e+00  1.26121e+01 -9.61467e+00
       H  4.20601e+00  1.40710e+01 -7.23060e+00
       O  2.58092e-01  4.75013e+00  6.90559e-01
       H -1.10014e+00  3.38472e+00  1.99093e-02
       H  1.68188e+00  3.42520e+00  3.68009e-01
       O  4.48607e+00  1.21802e+01  6.63906e-01
       H  3.04300e+00  1.09619e+01  1.31039e-01
       H  6.15974e+00  1.12736e+01  4.18760e-01
       O  4.49688e+00  2.21094e+00  1.30614e+01
       H  4.45907e+00  1.04001e-01  1.36784e+01
       H  4.33408e+00  2.02729e+00  1.12159e+01
       O  2.46976e-01  9.55040e+00  1.30386e+01
       H  4.26384e-01  7.89902e+00  1.39734e+01
       H  1.99706e-01  9.35703e+00  1.11934e+01
       O  4.00818e+00  2.54264e+00  7.57231e+00
       H  2.54257e+00  3.39451e+00  7.10086e+00
       H  5.50826e+00  3.47818e+00  7.14723e+00
       O -3.55152e-01  9.89772e+00  7.57068e+00
       H -1.80062e+00  1.10206e+01  7.60685e+00
       H  1.08971e+00  1.09189e+01  6.83851e+00
       O -3.66798e-01  5.19962e+00  6.13133e+00
       H -3.17792e-01  5.28387e+00  4.38905e+00
       H -1.02577e-01  6.81944e+00  6.74365e+00
       O  3.96602e+00  1.25424e+01  6.10549e+00
       H  3.95058e+00  1.26886e+01  4.49988e+00
       H  3.79344e+00  1.44328e+01  6.92681e+00
192
# CELL(abcABC):   16.99620    29.43815    27.67315    90.00000    90.00000    90.00000  Step:          20  Bead:      12 positions{atomic_unit}  cell{atomic_unit}
       O -8.18399e+00 -9.99518e+00 -1.31042e+01
       H  7.09107e+00 -1.08508e+01 -1.37919e+01
       H -6.69874e+00 -1.09101e+01 -1.39390e+01
       O -3.98449e+00 -2.57377e+00 -1.31312e+01
       H -5.37758e+00 -4.00602e+00 -1.33695e+01
       H -2.49901e+00 -3.53851e+00 -1.37355e+01
       O -3.98734e+00 -1.25206e+01 -7.64463e-01
       H -3.76620e+00 -1.42571e+01 -3.24267e-01
       H -4.31229e+00 -1.28237e+01 -2.77871e+00
       O -8.20341e+00 -5.12450e+00 -8.46447e-01
       H -8.24563e+00 -7.06434e+00 -2.40868e-01
       H -8.79984e+00 -4.88006e+00 -2.61120e+00
       O -4.43876e+00 -1.21968e+01 -6.27279e+00
       H -5.91245e+00 -1.10060e+01 -6.30241e+00
       H -2.96409e+00 -1.13350e+01 -6.76718e+00
       O  8.22209e+00 -4.76508e+00 -6.33074e+00
       H  6.65584e+00 -3.68157e+00 -6.45245e+00
       H -7.09053e+00 -3.75727e+00 -7.31892e+00
       O  8.20773e+00 -9.53132e+00 -7.61538e+00
       H  8.26935e+00 -9.53968e+00 -9.52502e+00
       H  8.19369e+00 -7.59019e+00 -7.11373e+00
       O -4.55278e+00 -2.06739e+00 -7.72055e+00
       H -4.12453e+00 -2.13791e+00 -9.80831e+00
       H -4.59562e+00 -2.48830e-02 -7.29016e+00
       O -8.21586e+00 -9.83049e+00  7.16218e-01
       H  7.44487e+00 -1.11290e+01  3.03384e-02
       H -6.75033e+00 -1.08368e+01  9.19043e-02
       O -3.92758e+00 -2.61486e+00  7.18795e-01
       H -5.48091e+00 -3.67347e+00  5.47831e-01
       H -2.54999e+00 -3.80626e+00  5.47534e-01
       O -3.99991e+00 -1.25177e+01  1.30267e+01
       H -3.79625e+00 -1.44786e+01  1.33228e+01
       H -4.06635e+00 -1.27540e+01  1.12293e+01
       O -8.15602e+00 -5.12851e+00  1.29642e+01
       H -8.22652e+00 -7.14048e+00  1.36595e+01
       H -8.17225e+00 -5.26622e+00  1.10483e+01
       O -4.45165e+00 -1.21631e+01  7.60619e+00
       H -6.18405e+00 -1.11092e+01  7.41207e+00
       H -3.02276e+00 -1.12548e+01  7.10946e+00
       O  8.22682e+00 -4.69587e+00  7.50728e+00
       H  6.51360e+00 -3.66399e+00  7.26545e+00
       H -7.20272e+00 -3.52141e+00  7.41458e+00
       O  8.15990e+00 -9.45144e+00  6.14261e+00
       H  8.26607e+00 -9.56397e+00  4.47851e+00
       H  7.93768e+00 -7.75308e+00  6.81515e+00
       O -4.60407e+00 -2.08061e+00  6.17537e+00
       H -4.20375e+00 -2.27028e+00  4.08526e+00
       H -4.35630e+00 -2.73449e-01  6.69137e+00
       O -8.16654e+00  4.79441e+00 -1.32894e+01
       H  7.29799e+00  3.56448e+00 -1.30821e+01
       H -6.73831e+00  3.61378e+00 -1.32168e+01
       O -3.97323e+00  1.21726e+01 -1.32348e+01
       H -5.57910e+00  1.11780e+01 -1.38990e+01
       H -2.52745e+00  1.12233e+01 -1.30876e+01
       O -3.91647e+00  2.20363e+00 -7.83845e-01
       H -4.06188e+00  6.00432e-01  3.72651e-03
       H -4.13507e+00  1.81361e+00 -2.75045e+00
       O -8.23386e+00  9.52538e+00 -7.39979e-01
       H -8.22253e+00  7.69209e+00 -5.50809e-01
       H -8.40315e+00  9.58298e+00 -2.79148e+00
       O -4.48156e+00  2.50354e+00 -6.27805e+00
       H -6.40551e+00  3.22519e+00 -6.31978e+00
       H -2.98655e+00  3.58713e+00 -6.82669e+00
       O  8.18284e+00  9.97412e+00 -6.26247e+00
       H  6.72966e+00  1.10045e+01 -6.46669e+00
       H -7.41803e+00  1.11122e+01 -6.27092e+00
       O  8.08288e+00  5.20302e+00 -7.73475e+00
       H  8.38311e+00  5.02158e+00 -9.48386e+00
       H  8.08392e+00  7.00353e+00 -7.19031e+00
       O -4.58749e+00  1.24060e+01 -7.77199e+00
       H -4.40297e+00  1.25549e+01 -9.66068e+00
       H -4.82677e+00  1.47472e+01 -7.44777e+00
       O -8.20649e+00  4.81817e+00  5.76674e-01
       H  7.40614e+00  3.59076e+00  2.30915e-01
       H -6.59083e+00  3.62248e+00  8.50505e-01
       O -3.92012e+00  1.20145e+01  6.03618e-01
       H -5.42330e+00  1.11371e+01  3.12454e-01
       H -2.61151e+00  1.09867e+01  5.73814e-01
       O -3.93832e+00  2.18917e+00  1.30287e+01
       H -3.97380e+00  3.37769e-01  1.32159e+01
       H -4.63393e+00  1.86465e+00  1.10229e+01
       O -8.16532e+00  9.53558e+00  1.30647e+01
       H -8.25489e+00  7.66573e+00  1.34742e+01
       H -8.67776e+00  9.26075e+00  1.13731e+01
       O -4.47829e+00  2.54228e+00  7.63368e+00
       H -5.85498e+00  3.48842e+00  6.99196e+00
       H -2.85329e+00  3.84412e+00  6.98648e+00
       O  8.32032e+00  9.89593e+00  7.55244e+00
       H  6.80549e+00  1.07063e+01  7.13690e+00
       H -7.00373e+00  1.10123e+01  7.11650e+00
       O  8.23106e+00  5.13799e+00  6.14324e+00
       H  8.51106e+00  5.56886e+00  4.36939e+00
       H  8.19012e+00  6.79283e+00  6.81777e+00
       O -4.53921e+00  1.25230e+01  6.15696e+00
       H -4.56869e+00  1.27962e+01  4.49265e+00
       H -4.48910e+00  1.45535e+01  6.86734e+00
       O  3.38296e-01 -9.84986e+00 -1.31767e+01
       H -1.21989e+00 -1.07530e+01 -1.33546e+01
       H  1.82937e+00 -1.13561e+01 -1.33678e+01
       O  4.51703e+00 -2.48007e+00 -1.31768e+01
       H  2.87962e+00 -3.63990e+00 -1.34036e+01
       H  6.09981e+00 -3.46172e+00 -1.34337e+01
       O  4.67671e+00 -1.26488e+01 -7.01378e-01
       H  4.34947e+00 -1.43247e+01 -2.15319e-03
       H  4.04993e+00 -1.23492e+01 -2.54378e+00
       O  2.09543e-01 -5.09388e+00 -6.96086e-01
       H  3.16118e-01 -6.80186e+00 -4.19956e-01
       H  1.58498e-02 -5.22956e+00 -2.40335e+00
       O  3.99329e+00 -1.20374e+01 -6.20013e+00
       H  2.56772e+00 -1.12602e+01 -6.84612e+00
       H  5.49642e+00 -1.11854e+01 -7.06164e+00
       O -2.95475e-01 -4.87554e+00 -6.34956e+00
       H -1.96781e+00 -3.99729e+00 -7.01069e+00
       H  1.15148e+00 -4.07026e+00 -6.85689e+00
       O -2.30042e-01 -9.75467e+00 -7.59965e+00
       H -1.67281e-01 -9.97551e+00 -9.55701e+00
       H -3.91868e-01 -7.79228e+00 -7.17133e+00
       O  3.99157e+00 -2.24883e+00 -7.71180e+00
       H  4.03018e+00 -2.22255e+00 -9.51720e+00
       H  4.05483e+00 -4.83799e-01 -7.00372e+00
       O  2.63551e-01 -1.00311e+01  7.24222e-01
       H -9.13248e-01 -1.11557e+01  1.34351e-01
       H  2.12082e+00 -1.10799e+01  1.69047e-01
       O  4.62234e+00 -2.65719e+00  6.10900e-01
       H  2.91027e+00 -3.54700e+00  5.09646e-01
       H  6.04690e+00 -3.65930e+00  4.05955e-01
       O  4.62858e+00 -1.23719e+01  1.30850e+01
       H  4.80331e+00 -1.45038e+01  1.35717e+01
       H  3.78732e+00 -1.26221e+01  1.12872e+01
       O  3.49781e-01 -5.14396e+00  1.29748e+01
       H  5.94560e-01 -6.95695e+00  1.35025e+01
       H -1.54277e-01 -5.40887e+00  1.12827e+01
       O  3.97593e+00 -1.21247e+01  7.50768e+00
       H  2.42036e+00 -1.09209e+01  7.54228e+00
       H  5.67141e+00 -1.11861e+01  6.97442e+00
       O -2.75047e-01 -4.73303e+00  7.57196e+00
       H -1.59372e+00 -4.00104e+00  7.39776e+00
       H  1.40587e+00 -3.76636e+00  7.22036e+00
       O -2.25066e-01 -9.55897e+00  6.10180e+00
       H -4.45394e-01 -9.01479e+00  4.18105e+00
       H -3.24381e-01 -7.90996e+00  6.73251e+00
       O  3.99531e+00 -2.29714e+00  6.07541e+00
       H  4.27091e+00 -1.74943e+00  4.59021e+00
       H  4.12642e+00 -1.30404e-02  6.75127e+00
       O  3.11536e-01  4.76658e+00 -1.31071e+01
       H -1.16317e+00  3.75574e+00 -1.37560e+01
       H  1.73007e+00  3.48933e+00 -1.40511e+01
       O  4.50797e+00  1.20979e+01 -1.31639e+01
       H  3.22400e+00  1.07212e+01 -1.35414e+01
       H  6.29385e+00  1.10925e+01 -1.36786e+01
       O  4.46276e+00  2.22562e+00 -7.67307e-01
       H  4.59000e+00  2.90686e-01  2.82358e-01
       H  4.17837e+00  2.15977e+00 -2.60276e+00
       O  2.08460e-01  9.56301e+00 -6.90048e-01
       H  2.06100e-01  7.88351e+00 -7.35532e-02
       H  1.86927e-02  9.30293e+00 -2.41179e+00
       O  4.03389e+00  2.48323e+00 -6.19104e+00
       H  2.60541e+00  3.63243e+00 -6.23348e+00
       H  5.49226e+00  3.52039e+00 -6.49489e+00
       O -1.35289e-01  9.95001e+00 -6.29220e+00
       H -1.75987e+00  1.09369e+01 -6.62937e+00
       H  1.34128e+00  1.06885e+01 -6.70340e+00
       O -3.17853e-01  5.24747e+00 -7.65849e+00
       H  1.71001e-01  5.02286e+00 -9.49714e+00
       H  1.12498e-01  7.02620e+00 -7.21648e+00
       O  3.83653e+00  1.25194e+01 -7.68914e+00
       H  4.35153e+00  1.26736e+01 -9.49939e+00
       H  4.14674e+00  1.43970e+01 -7.26519e+00
       O  2.96756e-01  4.75711e+00  6.56347e-01
       H -1.15863e+00  3.65917e+00  1.37953e-01
       H  1.50100e+00  3.51722e+00  2.23641e-01
       O  4.50276e+00  1.21872e+01  5.96512e-01
       H  3.26883e+00  1.10045e+01 -1.29147e-01
       H  6.17935e+00  1.12662e+01  3.41411e-01
       O  4.47472e+00  2.30764e+00  1.30566e+01
       H  4.48413e+00  4.41059e-01  1.38806e+01
       H  4.26626e+00  1.89009e+00  1.12401e+01
       O  2.35461e-01  9.53691e+00  1.29653e+01
       H  3.46989e-01  7.84711e+00  1.39385e+01
       H  5.81651e-02  9.54345e+00  1.11057e+01
       O  3.94509e+00  2.51429e+00  7.60327e+00
       H  2.24953e+00  3.39901e+00  6.96224e+00
       H  5.54142e+00  3.53807e+00  7.14815e+00
       O -3.50581e-01  9.79109e+00  7.59564e+00
       H -1.85442e+00  1.08858e+01  7.61567e+00
       H  1.22527e+00  1.08265e+01  6.97518e+00
       O -3.68728e-01  5.15480e+00  6.17317e+00
       H -8.34462e-01  5.49675e+00  4.30768e+00
       H -2.30873e-01  7.00120e+00  6.67120e+00
       O  4.04857e+00  1.24941e+01  6.16690e+00
       H  4.00835e+00  1.27683e+01  4.06038e+00
       H  3.88299e+00  1.42695e+01  6.77078e+00
192
# CELL(abcABC):   16.99620    29.43815    27.67315    90.00000    90.00000    90.00000  Step:          30  Bead:      12 positions{atomic_unit}  cell{atomic_unit}
       O -8.14370e+00 -1.00029e+01 -1.30485e+01
       H  7.24928e+00 -1.05587e+01 -1.35883e+01
       H -6.87073e+00 -1.10265e+01 -1.40311e+01
       O -4.04366e+00 -2.54837e+00 -1.31781e+01
       H -5.40793e+00 -3.64603e+00 -1.32995e+01
       H -2.67122e+00 -3.49315e+00 -1.36396e+01
       O -4.00473e+00 -1.24788e+01 -7.79459e-01
       H -3.77608e+00 -1.43339e+01 -3.43612e-01
       H -4.28951e+00 -1.24760e+01 -2.50302e+00
       O -8.22228e+00 -5.17003e+00 -7.36375e-01
       H -8.47455e+00 -7.06466e+00 -3.00947e-01
       H -8.60623e+00 -5.02123e+00 -2.47842e+00
       O -4.44166e+00 -1.21863e+01 -6.19634e+00
       H -5.87689e+00 -1.11200e+01 -6.81990e+00
       H -2.91359e+00 -1.14041e+01 -6.73710e+00
       O  8.40093e+00 -4.72245e+00 -6.43542e+00
       H  6.77036e+00 -3.58205e+00 -6.40389e+00
       H -7.15418e+00 -3.73589e+00 -7.04068e+00
       O  8.14351e+00 -9.49067e+00 -7.57789e+00
       H  8.48618e+00 -9.67357e+00 -9.20466e+00
       H  8.22353e+00 -7.42932e+00 -6.88339e+00
       O -4.54257e+00 -2.09612e+00 -7.77132e+00
       H -4.18033e+00 -2.10022e+00 -9.35404e+00
       H -4.81266e+00  2.06633e-02 -7.26339e+00
       O -8.32187e+00 -9.80745e+00  6.57756e-01
       H  7.52515e+00 -1.10944e+01  1.30935e-01
       H -6.89035e+00 -1.09514e+01  2.12627e-01
       O -3.86502e+00 -2.58603e+00  7.21196e-01
       H -5.48796e+00 -3.38947e+00  5.26472e-01
       H -2.32412e+00 -3.96624e+00  5.36307e-01
       O -3.95241e+00 -1.25338e+01  1.30235e+01
       H -3.82908e+00 -1.42484e+01  1.34852e+01
       H -4.09168e+00 -1.25307e+01  1.13079e+01
       O -8.16968e+00 -5.12540e+00  1.30355e+01
       H -7.67092e+00 -6.71479e+00  1.35254e+01