192
# CELL(abcABC):   16.99620    29.43815    27.67315    90.00000    90.00000    90.00000  Step:           0  Bead:      12 positions{atomic_unit}  cell{atomic_unit}
       O -8.21943e+00 -9.93714e+00 -1.31733e+01
       H  7.30975e+00 -1.09659e+01 -1.36333e+01
       H -6.70309e+00 -1.09427e+01 -1.35003e+01
       O -3.97045e+00 -2.57760e+00 -1.31733e+01
       H -5.43740e+00 -3.60640e+00 -1.36335e+01
       H -2.45410e+00 -3.58307e+00 -1.35002e+01
       O -3.95479e+00 -1.25494e+01 -7.82537e-01
       H -3.95303e+00 -1.43463e+01 -2.27998e-01
       H -4.14654e+00 -1.25640e+01 -2.59980e+00
       O -8.20381e+00 -5.18980e+00 -7.82573e-01
       H -8.20206e+00 -6.98662e+00 -2.28079e-01
       H -8.39554e+00 -5.20430e+00 -2.59985e+00
       O -4.52774e+00 -1.21415e+01 -6.25501e+00
       H -6.04401e+00 -1.11359e+01 -6.58198e+00
       H -3.06070e+00 -1.11128e+01 -6.71509e+00
       O  8.21948e+00 -4.78197e+00 -6.25503e+00
       H  6.70316e+00 -3.77646e+00 -6.58191e+00
       H -7.30970e+00 -3.75321e+00 -6.71514e+00
       O  8.20373e+00 -9.52922e+00 -7.70081e+00
       H  8.39566e+00 -9.51468e+00 -9.51806e+00
       H  8.20220e+00 -7.73240e+00 -7.14624e+00
       O -4.54345e+00 -2.16975e+00 -7.70084e+00
       H -4.35162e+00 -2.15526e+00 -9.51812e+00
       H -4.54503e+00 -3.72917e-01 -7.14634e+00
       O -8.21943e+00 -9.93697e+00  6.63195e-01
       H  7.30977e+00 -1.09657e+01  2.03202e-01
       H -6.70308e+00 -1.09425e+01  3.36227e-01
       O -3.97044e+00 -2.57760e+00  6.63173e-01
       H -5.43747e+00 -3.60635e+00  2.03069e-01
       H -2.45410e+00 -3.58312e+00  3.36346e-01
       O -3.95472e+00 -1.25494e+01  1.30540e+01
       H -3.95309e+00 -1.43462e+01  1.36086e+01
       H -4.14653e+00 -1.25640e+01  1.12368e+01
       O -8.20380e+00 -5.18990e+00  1.30541e+01
       H -8.20202e+00 -6.98672e+00  1.36085e+01
       H -8.39553e+00 -5.20434e+00  1.12368e+01
       O -4.52771e+00 -1.21415e+01  7.58159e+00
       H -6.04402e+00 -1.11360e+01  7.25460e+00
       H -3.06070e+00 -1.11128e+01  7.12152e+00
       O  8.21944e+00 -4.78191e+00  7.58149e+00
       H  6.70312e+00 -3.77633e+00  7.25453e+00
       H -7.30974e+00 -3.75322e+00  7.12139e+00
       O  8.20378e+00 -9.52926e+00  6.13582e+00
       H  8.39564e+00 -9.51474e+00  4.31856e+00
       H  8.20221e+00 -7.73246e+00  6.69037e+00
       O -4.54344e+00 -2.16971e+00  6.13568e+00
       H -4.35161e+00 -2.15522e+00  4.31840e+00
       H -4.54506e+00 -3.72896e-01  6.69017e+00
       O -8.21947e+00  4.78210e+00 -1.31734e+01
       H  7.30974e+00  3.75335e+00 -1.36334e+01
       H -6.70314e+00  3.77651e+00 -1.35002e+01
       O -3.97046e+00  1.21415e+01 -1.31733e+01
       H -5.43745e+00  1.11127e+01 -1.36334e+01
       H -2.45410e+00  1.11360e+01 -1.35002e+01
       O -3.95479e+00  2.16971e+00 -7.82462e-01
       H -3.95303e+00  3.72884e-01 -2.27933e-01
       H -4.14646e+00  2.15509e+00 -2.59975e+00
       O -8.20376e+00  9.52923e+00 -7.82499e-01
       H -8.20200e+00  7.73238e+00 -2.27998e-01
       H -8.39546e+00  9.51472e+00 -2.59977e+00
       O -4.52774e+00  2.57749e+00 -6.25512e+00
       H -6.04400e+00  3.58312e+00 -6.58197e+00
       H -3.06066e+00  3.60618e+00 -6.71512e+00
       O  8.21949e+00  9.93715e+00 -6.25509e+00
       H  6.70318e+00  1.09426e+01 -6.58202e+00
       H -7.30970e+00  1.09659e+01 -6.71526e+00
       O  8.20366e+00  5.18988e+00 -7.70077e+00
       H  8.39552e+00  5.20437e+00 -9.51803e+00
       H  8.20217e+00  6.98669e+00 -7.14625e+00
       O -4.54337e+00  1.25494e+01 -7.70088e+00
       H -4.35159e+00  1.25639e+01 -9.51817e+00
       H -4.54500e+00  1.43462e+01 -7.14634e+00
       O -8.21952e+00  4.78190e+00  6.63226e-01
       H  7.30971e+00  3.75313e+00  2.03107e-01
       H -6.70317e+00  3.77635e+00  3.36440e-01
       O -3.97040e+00  1.21415e+01  6.63326e-01
       H -5.43738e+00  1.11127e+01  2.03185e-01
       H -2.45407e+00  1.11360e+01  3.36426e-01
       O -3.95476e+00  2.16964e+00  1.30541e+01
       H -3.95303e+00  3.72832e-01  1.36087e+01
       H -4.14651e+00  2.15510e+00  1.12369e+01
       O -8.20373e+00  9.52937e+00  1.30540e+01
       H -8.20206e+00  7.73252e+00  1.36085e+01
       H -8.39548e+00  9.51483e+00  1.12368e+01
       O -4.52770e+00  2.57756e+00  7.58140e+00
       H -6.04399e+00  3.58315e+00  7.25450e+00
       H -3.06066e+00  3.60630e+00  7.12138e+00
       O  8.21951e+00  9.93714e+00  7.58157e+00
       H  6.70319e+00  1.09427e+01  7.25463e+00
       H -7.30968e+00  1.09658e+01  7.12140e+00
       O  8.20369e+00  5.18993e+00  6.13578e+00
       H  8.39547e+00  5.20441e+00  4.31850e+00
       H  8.20212e+00  6.98674e+00  6.69030e+00
       O -4.54348e+00  1.25494e+01  6.13570e+00
       H -4.35158e+00  1.25639e+01  4.31845e+00
       H -4.54503e+00  1.43462e+01  6.69025e+00
       O  2.78573e-01 -9.93717e+00 -1.31734e+01
       H -1.18842e+00 -1.09659e+01 -1.36336e+01
       H  1.79493e+00 -1.09427e+01 -1.35002e+01
       O  4.52772e+00 -2.57751e+00 -1.31733e+01
       H  3.06068e+00 -3.60627e+00 -1.36334e+01
       H  6.04403e+00 -3.58305e+00 -1.35003e+01
       O  4.54334e+00 -1.25494e+01 -7.82465e-01
       H  4.54513e+00 -1.43463e+01 -2.27989e-01
       H  4.35168e+00 -1.25640e+01 -2.59974e+00
       O  2.94294e-01 -5.18980e+00 -7.82487e-01
       H  2.96032e-01 -6.98663e+00 -2.28053e-01
       H  1.02602e-01 -5.20427e+00 -2.59977e+00
       O  3.97042e+00 -1.21415e+01 -6.25517e+00
       H  2.45414e+00 -1.11359e+01 -6.58198e+00
       H  5.43747e+00 -1.11128e+01 -6.71526e+00
       O -2.78672e-01 -4.78194e+00 -6.25508e+00
       H -1.79498e+00 -3.77636e+00 -6.58199e+00
       H  1.18837e+00 -3.75320e+00 -6.71514e+00
       O -2.94511e-01 -9.52920e+00 -7.70081e+00
       H -1.02600e-01 -9.51466e+00 -9.51806e+00
       H -2.96005e-01 -7.73240e+00 -7.14625e+00
       O  3.95462e+00 -2.16972e+00 -7.70080e+00
       H  4.14654e+00 -2.15521e+00 -9.51804e+00
       H  3.95318e+00 -3.72879e-01 -7.14628e+00
       O  2.78541e-01 -9.93701e+00  6.63104e-01
       H -1.18842e+00 -1.09658e+01  2.03011e-01
       H  1.79493e+00 -1.09425e+01  3.36333e-01
       O  4.52773e+00 -2.57757e+00  6.63187e-01
       H  3.06068e+00 -3.60633e+00  2.03125e-01
       H  6.04402e+00 -3.58308e+00  3.36357e-01
       O  4.54332e+00 -1.25494e+01  1.30541e+01
       H  4.54518e+00 -1.43462e+01  1.36086e+01
       H  4.35169e+00 -1.25640e+01  1.12368e+01
       O  2.94281e-01 -5.18991e+00  1.30541e+01
       H  2.95995e-01 -6.98675e+00  1.36085e+01
       H  1.02570e-01 -5.20435e+00  1.12368e+01
       O  3.97044e+00 -1.21415e+01  7.58145e+00
       H  2.45413e+00 -1.11360e+01  7.25466e+00
       H  5.43745e+00 -1.11128e+01  7.12135e+00
       O -2.78601e-01 -4.78191e+00  7.58148e+00
       H -1.79495e+00 -3.77634e+00  7.25458e+00
       H  1.18839e+00 -3.75323e+00  7.12138e+00
       O -2.94501e-01 -9.52922e+00  6.13582e+00
       H -1.02637e-01 -9.51466e+00  4.31854e+00
       H -2.96013e-01 -7.73241e+00  6.69035e+00
       O  3.95462e+00 -2.16967e+00  6.13570e+00
       H  4.14656e+00 -2.15516e+00  4.31844e+00
       H  3.95315e+00 -3.72836e-01  6.69024e+00
       O  2.78636e-01  4.78206e+00 -1.31735e+01
       H -1.18832e+00  3.75329e+00 -1.36335e+01
       H  1.79499e+00  3.77651e+00 -1.35003e+01
       O  4.52773e+00  1.21415e+01 -1.31733e+01
       H  3.06066e+00  1.11127e+01 -1.36334e+01
       H  6.04403e+00  1.11360e+01 -1.35003e+01
       O  4.54332e+00  2.16970e+00 -7.82499e-01
       H  4.54510e+00  3.72872e-01 -2.27973e-01
       H  4.35161e+00  2.15513e+00 -2.59979e+00
       O  2.94188e-01  9.52923e+00 -7.82517e-01
       H  2.95976e-01  7.73239e+00 -2.28033e-01
       H  1.02486e-01  9.51470e+00 -2.59980e+00
       O  3.97041e+00  2.57752e+00 -6.25508e+00
       H  2.45414e+00  3.58307e+00 -6.58188e+00
       H  5.43747e+00  3.60626e+00 -6.71516e+00
       O -2.78677e-01  9.93714e+00 -6.25506e+00
       H -1.79497e+00  1.09427e+01 -6.58203e+00
       H  1.18838e+00  1.09659e+01 -6.71517e+00
       O -2.94451e-01  5.18990e+00 -7.70074e+00
       H -1.02475e-01  5.20442e+00 -9.51799e+00
       H -2.95971e-01  6.98671e+00 -7.14623e+00
       O  3.95453e+00  1.25494e+01 -7.70088e+00
       H  4.14650e+00  1.25638e+01 -9.51813e+00
       H  3.95314e+00  1.43462e+01 -7.14638e+00
       O  2.78666e-01  4.78190e+00  6.63181e-01
       H -1.18838e+00  3.75314e+00  2.03219e-01
       H  1.79499e+00  3.77637e+00  3.36305e-01
       O  4.52768e+00  1.21415e+01  6.63233e-01
       H  3.06065e+00  1.11127e+01  2.03130e-01
       H  6.04402e+00  1.11359e+01  3.36318e-01
       O  4.54337e+00  2.16963e+00  1.30541e+01
       H  4.54515e+00  3.72778e-01  1.36085e+01
       H  4.35165e+00  2.15511e+00  1.12368e+01
       O  2.94139e-01  9.52935e+00  1.30540e+01
       H  2.96028e-01  7.73252e+00  1.36085e+01
       H  1.02508e-01  9.51480e+00  1.12368e+01
       O  3.97044e+00  2.57752e+00  7.58146e+00
       H  2.45409e+00  3.58312e+00  7.25468e+00
       H  5.43745e+00  3.60627e+00  7.12136e+00
       O -2.78642e-01  9.93713e+00  7.58156e+00
       H -1.79498e+00  1.09426e+01  7.25459e+00
       H  1.18834e+00  1.09658e+01  7.12145e+00
       O -2.94462e-01  5.18993e+00  6.13575e+00
       H -1.02485e-01  5.20444e+00  4.31854e+00
       H -2.95928e-01  6.98677e+00  6.69031e+00
       O  3.95461e+00  1.25493e+01  6.13580e+00
       H  4.14651e+00  1.25638e+01  4.31854e+00
       H  3.95313e+00  1.43462e+01  6.69028e+00
192
# CELL(abcABC):   16.99620    29.43815    27.67315    90.00000    90.00000    90.00000  Step:          10  Bead:      12 positions{atomic_unit}  cell{atomic_unit}
       O -8.22316e+00 -9.95459e+00 -1.31610e+01
       H  7.27895e+00 -1.10080e+01 -1.37035e+01
       H -6.68796e+00 -1.09673e+01 -1.34794e+01
       O -3.98141e+00 -2.55628e+00 -1.31368e+01
       H -5.48323e+00 -3.69626e+00 -1.37479e+01
       H -2.47229e+00 -3.50401e+00 -1.34566e+01
       O -3.94682e+00 -1.25250e+01 -7.77720e-01
       H -4.00022e+00 -1.43792e+01 -2.81842e-01
       H -4.13703e+00 -1.26202e+01 -2.75614e+00
       O -8.17378e+00 -5.18370e+00 -7.81896e-01
       H -8.24963e+00 -6.79848e+00 -2.94069e-01
       H -8.33667e+00 -5.20275e+00 -2.65411e+00
       O -4.48301e+00 -1.21813e+01 -6.28262e+00
       H -6.06482e+00 -1.10863e+01 -6.51018e+00
       H -2.92839e+00 -1.10466e+01 -6.56202e+00
       O  8.17139e+00 -4.78790e+00 -6.25303e+00
       H  6.68485e+00 -3.73775e+00 -6.61895e+00
       H -7.06815e+00 -3.63023e+00 -6.68148e+00
       O  8.19832e+00 -9.54440e+00 -7.65517e+00
       H  8.30754e+00 -9.44120e+00 -9.45635e+00
       H  8.06458e+00 -7.72008e+00 -7.11563e+00
       O -4.54351e+00 -2.15065e+00 -7.68477e+00
       H -4.27248e+00 -2.20370e+00 -9.38949e+00
       H -4.53247e+00 -4.02840e-01 -7.15734e+00
       O -8.21016e+00 -9.91520e+00  6.27346e-01
       H  7.17664e+00 -1.08643e+01  3.45963e-03
       H -6.79613e+00 -1.09452e+01  2.50180e-01
       O -3.95160e+00 -2.60385e+00  6.98469e-01
       H -5.46296e+00 -3.62715e+00  2.65420e-01
       H -2.53642e+00 -3.67176e+00  5.20763e-01
       O -3.96862e+00 -1.25257e+01  1.30321e+01
       H -3.93577e+00 -1.44292e+01  1.36373e+01
       H -4.24025e+00 -1.25939e+01  1.11894e+01
       O -8.20352e+00 -5.16325e+00  1.30390e+01
       H -8.16045e+00 -7.04616e+00  1.37028e+01
       H -8.41185e+00 -5.30796e+00  1.10313e+01
       O -4.49834e+00 -1.21601e+01  7.60810e+00
       H -6.21710e+00 -1.11965e+01  7.32904e+00
       H -3.06792e+00 -1.11196e+01  6.97008e+00
       O  8.21329e+00 -4.76716e+00  7.58022e+00
       H  6.68476e+00 -3.69072e+00  7.24253e+00
       H -7.30085e+00 -3.85146e+00  7.15021e+00
       O  8.22950e+00 -9.52809e+00  6.13799e+00
       H  8.17053e+00 -9.72464e+00  4.35265e+00
       H  8.16046e+00 -7.78387e+00  6.75666e+00
       O -4.53234e+00 -2.11405e+00  6.16434e+00
       H -4.17923e+00 -2.14959e+00  4.35120e+00
       H -4.51368e+00 -4.05238e-01  6.53417e+00
       O -8.24843e+00  4.75834e+00 -1.32473e+01
       H  7.45034e+00  3.74193e+00 -1.34517e+01
       H -6.67453e+00  3.84227e+00 -1.33836e+01
       O -3.95710e+00  1.21396e+01 -1.32134e+01
       H -5.48614e+00  1.10252e+01 -1.36962e+01
       H -2.47598e+00  1.10516e+01 -1.35006e+01
       O -3.96185e+00  2.18247e+00 -7.60401e-01
       H -4.13808e+00  3.77024e-01 -1.22551e-01
       H -4.14348e+00  2.24887e+00 -2.62407e+00
       O -8.25107e+00  9.51079e+00 -7.53565e-01
       H -8.19630e+00  7.65019e+00 -2.45374e-01
       H -8.28466e+00  9.51689e+00 -2.69964e+00
       O -4.50135e+00  2.50742e+00 -6.24407e+00
       H -6.23243e+00  3.47581e+00 -6.60952e+00
       H -3.12218e+00  3.60231e+00 -6.67087e+00
       O  8.23661e+00  9.94344e+00 -6.22592e+00
       H  6.71440e+00  1.08184e+01 -6.51280e+00
       H -7.18791e+00  1.08937e+01 -6.62630e+00
       O  8.17413e+00  5.21487e+00 -7.67428e+00
       H  8.43283e+00  5.15389e+00 -9.47702e+00
       H  8.16086e+00  7.04343e+00 -7.08408e+00
       O -4.54605e+00  1.25163e+01 -7.70828e+00
       H -4.46387e+00  1.26092e+01 -9.45104e+00
       H -4.53735e+00  1.43651e+01 -7.38285e+00
       O -8.23418e+00  4.79974e+00  6.41939e-01
       H  7.28633e+00  3.79431e+00  3.91741e-01
       H -6.57011e+00  3.63123e+00  4.17150e-01
       O -3.97345e+00  1.21203e+01  6.18399e-01
       H -5.45226e+00  1.11370e+01  1.24439e-01
       H -2.38307e+00  1.10402e+01  4.29088e-01
       O -3.95710e+00  2.14731e+00  1.30550e+01
       H -3.99512e+00  3.99458e-01  1.34505e+01
       H -4.15648e+00  1.96901e+00  1.13378e+01
       O -8.22992e+00  9.57286e+00  1.30199e+01
       H -8.22431e+00  7.78726e+00  1.35212e+01
       H -8.48604e+00  9.44625e+00  1.13417e+01
       O -4.54317e+00  2.56046e+00  7.56017e+00
       H -5.95483e+00  3.50210e+00  7.32170e+00
       H -2.99362e+00  3.51075e+00  7.30165e+00
       O  8.21141e+00  9.88509e+00  7.58638e+00
       H  6.64110e+00  1.09503e+01  7.31045e+00
       H -7.37033e+00  1.10682e+01  7.14894e+00
       O  8.22126e+00  5.16202e+00  6.13308e+00
       H  8.26597e+00  5.22348e+00  4.19759e+00
       H  8.41881e+00  7.04949e+00  6.77274e+00
       O -4.53368e+00  1.25623e+01  6.15977e+00
       H -4.45477e+00  1.26137e+01  4.29717e+00
       H -4.34251e+00  1.43435e+01  6.79333e+00
       O  3.20766e-01 -9.92250e+00 -1.31907e+01
       H -1.29086e+00 -1.09882e+01 -1.35818e+01
       H  1.79049e+00 -1.09835e+01 -1.36651e+01
       O  4.55049e+00 -2.53029e+00 -1.32040e+01
       H  3.00421e+00 -3.52207e+00 -1.35860e+01
       H  6.03093e+00 -3.63376e+00 -1.34775e+01
       O  4.58726e+00 -1.25967e+01 -7.76289e-01
       H  4.57618e+00 -1.42074e+01 -1.84767e-01
       H  4.34135e+00 -1.26567e+01 -2.56009e+00
       O  2.88086e-01 -5.19711e+00 -7.79096e-01
       H  2.69527e-01 -7.16312e+00 -1.35620e-01
       H -5.30642e-02 -5.11278e+00 -2.73610e+00
       O  3.99844e+00 -1.21212e+01 -6.24660e+00
       H  2.26770e+00 -1.09145e+01 -6.85258e+00
       H  5.46495e+00 -1.09581e+01 -6.82944e+00
       O -2.32728e-01 -4.83489e+00 -6.27735e+00
       H -1.91888e+00 -3.74292e+00 -6.78183e+00
       H  1.21683e+00 -3.61999e+00 -6.72644e+00
       O -2.74725e-01 -9.55221e+00 -7.69839e+00
       H -1.09054e-01 -9.68573e+00 -9.61803e+00
       H -2.04187e-01 -7.77858e+00 -7.18803e+00
       O  3.95090e+00 -2.20377e+00 -7.70126e+00
       H  4.04832e+00 -2.14708e+00 -9.53518e+00
       H  4.16780e+00 -4.42451e-01 -7.17794e+00
       O  3.01572e-01 -9.97866e+00  6.76383e-01
       H -1.07766e+00 -1.10173e+01  1.93162e-01
       H  1.82559e+00 -1.08785e+01  2.43095e-01
       O  4.55038e+00 -2.60787e+00  6.22882e-01
       H  3.07753e+00 -3.63217e+00  3.58940e-01
       H  6.11856e+00 -3.58766e+00  2.20069e-01
       O  4.58437e+00 -1.25338e+01  1.30191e+01
       H  4.46432e+00 -1.44910e+01  1.35209e+01
       H  4.24650e+00 -1.27044e+01  1.14175e+01
       O  3.05693e-01 -5.16851e+00  1.30354e+01
       H  4.59608e-01 -6.85177e+00  1.35907e+01
       H  1.92368e-01 -5.11025e+00  1.11711e+01
       O  3.95400e+00 -1.21526e+01  7.57228e+00
       H  2.48199e+00 -1.11024e+01  7.31501e+00
       H  5.37730e+00 -1.11306e+01  7.07463e+00
       O -2.58331e-01 -4.75134e+00  7.59723e+00
       H -1.96680e+00 -3.74957e+00  7.49035e+00
       H  1.18418e+00 -3.71878e+00  7.11307e+00
       O -2.51458e-01 -9.52826e+00  6.11712e+00
       H -2.33181e-01 -9.24583e+00  4.23654e+00
       H -2.51482e-01 -7.70533e+00  6.75324e+00
       O  3.97017e+00 -2.21849e+00  6.11851e+00
       H  4.21348e+00 -1.92286e+00  4.34659e+00
       H  3.95571e+00 -2.63220e-01  6.73258e+00
       O  2.75217e-01  4.78667e+00 -1.31800e+01
       H -1.30968e+00  3.82909e+00 -1.36048e+01
       H  1.76245e+00  4.04189e+00 -1.36232e+01
       O  4.52740e+00  1.21278e+01 -1.31815e+01
       H  3.19608e+00  1.12686e+01 -1.35393e+01
       H  5.98379e+00  1.10987e+01 -1.35112e+01
       O  4.54146e+00  2.16808e+00 -7.94919e-01
       H  4.62314e+00  3.23557e-01 -1.70279e-01
       H  4.38226e+00  2.07585e+00 -2.67611e+00
       O  2.74369e-01  9.55013e+00 -8.00867e-01
       H  2.90761e-01  7.83291e+00 -1.43592e-01
       H  1.04541e-01  9.44434e+00 -2.49180e+00
       O  3.98537e+00  2.56030e+00 -6.23714e+00
       H  2.54458e+00  3.63624e+00 -6.59690e+00
       H  5.49786e+00  3.49296e+00 -6.72048e+00
       O -2.77294e-01  9.97272e+00 -6.28297e+00
       H -1.69285e+00  1.09940e+01 -6.56559e+00
       H  1.16400e+00  1.10583e+01 -6.88187e+00
       O -2.77247e-01  5.21305e+00 -7.69856e+00
       H -2.19054e-01  5.23678e+00 -9.44933e+00
       H -2.80299e-01  7.11872e+00 -7.15965e+00
       O  3.91290e+00  1.25487e+01 -7.66072e+00
       H  4.22980e+00  1.25061e+01 -9.64526e+00
       H  4.10727e+00  1.41805e+01 -7.16966e+00
       O  2.53326e-01  4.76702e+00  6.72320e-01
       H -1.17655e+00  3.48250e+00  8.70260e-02
       H  1.74925e+00  3.68435e+00  2.71807e-01
       O  4.49749e+00  1.21619e+01  6.74895e-01
       H  3.05864e+00  1.10295e+01  1.85889e-01
       H  6.06845e+00  1.12408e+01  4.02945e-01
       O  4.52225e+00  2.18931e+00  1.30463e+01
       H  4.47747e+00  1.53239e-01  1.35831e+01
       H  4.34901e+00  2.08205e+00  1.12882e+01
       O  2.48496e-01  9.53268e+00  1.30484e+01
       H  3.40901e-01  7.78463e+00  1.37447e+01
       H  1.42561e-01  9.42214e+00  1.11778e+01
       O  3.97706e+00  2.58393e+00  7.57024e+00
       H  2.58872e+00  3.50099e+00  7.13070e+00
       H  5.52594e+00  3.58019e+00  7.14406e+00
       O -3.22854e-01  9.90043e+00  7.55256e+00
       H -1.75133e+00  1.10193e+01  7.37389e+00
       H  1.14923e+00  1.09403e+01  7.00604e+00
       O -3.06036e-01  5.21615e+00  6.12201e+00
       H -1.35272e-01  5.27157e+00  4.30786e+00
       H -2.18379e-01  6.87385e+00  6.70962e+00
       O  3.95026e+00  1.25683e+01  6.11052e+00
       H  4.03328e+00  1.25854e+01  4.45904e+00
       H  3.82337e+00  1.43853e+01  6.89945e+00
192
# CELL(abcABC):   16.99620    29.43815    27.67315    90.00000    90.00000    90.00000  Step:          20  Bead:      12 positions{atomic_unit}  cell{atomic_unit}
       O -8.20279e+00 -9.95955e+00 -1.31487e+01
       H  7.20999e+00 -1.09186e+01 -1.38505e+01
       H -6.65135e+00 -1.09275e+01 -1.36160e+01
       O -3.96157e+00 -2.55762e+00 -1.31469e+01
       H -5.44268e+00 -3.85578e+00 -1.35503e+01
       H -2.46813e+00 -3.57352e+00 -1.35756e+01
       O -3.96224e+00 -1.25324e+01 -7.70884e-01
       H -3.89326e+00 -1.42207e+01 -3.24053e-01
       H -4.26227e+00 -1.26989e+01 -2.80171e+00
       O -8.17505e+00 -5.15563e+00 -8.15685e-01
       H -8.16635e+00 -6.79311e+00 -3.08444e-01
       H -8.45897e+00 -5.06510e+00 -2.63511e+00
       O -4.44964e+00 -1.22078e+01 -6.28044e+00
       H -6.01526e+00 -1.10625e+01 -6.38957e+00
       H -2.93690e+00 -1.10798e+01 -6.62485e+00
       O  8.17553e+00 -4.79203e+00 -6.25936e+00
       H  6.75386e+00 -3.71536e+00 -6.55991e+00
       H -7.08995e+00 -3.65317e+00 -6.98597e+00
       O  8.22024e+00 -9.53579e+00 -7.65386e+00
       H  8.23490e+00 -9.41662e+00 -9.55738e+00
       H  8.10743e+00 -7.65575e+00 -7.19335e+00
       O -4.55212e+00 -2.10939e+00 -7.71330e+00
       H -4.15376e+00 -2.26063e+00 -9.64746e+00
       H -4.48532e+00 -2.39745e-01 -7.28839e+00
       O -8.19598e+00 -9.87748e+00  6.93368e-01
       H  7.29850e+00 -1.10159e+01 -4.62432e-02
       H -6.76575e+00 -1.09993e+01  2.18381e-01
       O -3.93100e+00 -2.61329e+00  7.07119e-01
       H -5.41686e+00 -3.63376e+00  3.12857e-01
       H -2.58367e+00 -3.62324e+00  5.22041e-01
       O -3.97299e+00 -1.25137e+01  1.30362e+01
       H -3.87118e+00 -1.44635e+01  1.35188e+01
       H -4.12927e+00 -1.27264e+01  1.12258e+01
       O -8.16489e+00 -5.13498e+00  1.30308e+01
       H -8.20431e+00 -7.08955e+00  1.37366e+01
       H -8.35317e+00 -5.28282e+00  1.10356e+01
       O -4.47438e+00 -1.21651e+01  7.61637e+00
       H -6.29491e+00 -1.11325e+01  7.33944e+00
       H -2.93943e+00 -1.11761e+01  7.02077e+00
       O  8.19510e+00 -4.75224e+00  7.55631e+00
       H  6.59899e+00 -3.63288e+00  7.22656e+00
       H -7.25895e+00 -3.58722e+00  7.30452e+00
       O  8.21769e+00 -9.49397e+00  6.12409e+00
       H  8.26248e+00 -9.70565e+00  4.43971e+00
       H  8.07026e+00 -7.72853e+00  6.83289e+00
       O -4.55438e+00 -2.10641e+00  6.18617e+00
       H -4.07279e+00 -2.23070e+00  4.22883e+00
       H -4.51156e+00 -4.52240e-01  6.52814e+00
       O -8.19741e+00  4.79456e+00 -1.32734e+01
       H  7.43595e+00  3.67770e+00 -1.32939e+01
       H -6.80500e+00  3.70971e+00 -1.33230e+01
       O -3.94112e+00  1.21421e+01 -1.32282e+01
       H -5.53011e+00  1.10176e+01 -1.37285e+01
       H -2.51238e+00  1.11589e+01 -1.32753e+01
       O -3.95113e+00  2.19079e+00 -7.31402e-01
       H -4.12363e+00  5.26724e-01 -8.18944e-02
       H -4.17208e+00  2.07953e+00 -2.56168e+00
       O -8.25828e+00  9.53828e+00 -7.59158e-01
       H -8.26607e+00  7.58611e+00 -3.91574e-01
       H -8.34882e+00  9.52290e+00 -2.84495e+00
       O -4.48166e+00  2.48569e+00 -6.24493e+00
       H -6.41815e+00  3.32371e+00 -6.52929e+00
       H -3.14487e+00  3.61304e+00 -6.75743e+00
       O  8.24372e+00  9.96691e+00 -6.25839e+00
       H  6.78284e+00  1.08019e+01 -6.51944e+00
       H -7.38385e+00  1.09783e+01 -6.48821e+00
       O  8.12004e+00  5.18906e+00 -7.69467e+00
       H  8.45136e+00  5.16361e+00 -9.41073e+00
       H  8.09590e+00  6.97051e+00 -7.10320e+00
       O -4.54669e+00  1.24639e+01 -7.73448e+00
       H -4.30995e+00  1.26146e+01 -9.42974e+00
       H -4.71683e+00  1.44374e+01 -7.38582e+00
       O -8.23295e+00  4.81417e+00  6.02522e-01
       H  7.44435e+00  3.76740e+00  3.64541e-01
       H -6.53781e+00  3.57885e+00  6.02518e-01
       O -3.95580e+00  1.20751e+01  6.37675e-01
       H -5.39554e+00  1.11809e+01  1.77065e-01
       H -2.64370e+00  1.10292e+01  4.01581e-01
       O -3.93217e+00  2.17832e+00  1.30381e+01
       H -3.91601e+00  3.28574e-01  1.34110e+01
       H -4.32104e+00  1.83835e+00  1.12376e+01
       O -8.20600e+00  9.57656e+00  1.30243e+01
       H -8.19691e+00  7.73642e+00  1.34034e+01
       H -8.57872e+00  9.34264e+00  1.14046e+01
       O -4.51665e+00  2.54283e+00  7.56231e+00
       H -5.82673e+00  3.44993e+00  7.24861e+00
       H -3.00244e+00  3.64653e+00  7.20164e+00
       O  8.26041e+00  9.88758e+00  7.55316e+00
       H  6.73293e+00  1.08660e+01  7.29611e+00
       H -7.13798e+00  1.09852e+01  7.09131e+00
       O  8.22708e+00  5.16151e+00  6.14929e+00
       H  8.36785e+00  5.36771e+00  4.26229e+00
       H  8.29087e+00  6.91023e+00  6.71426e+00
       O -4.52581e+00  1.25190e+01  6.15419e+00
       H -4.51926e+00  1.26771e+01  4.45436e+00
       H -4.33781e+00  1.44253e+01  6.83151e+00
       O  3.30480e-01 -9.87489e+00 -1.31735e+01
       H -1.16598e+00 -1.09557e+01 -1.35039e+01
       H  1.84243e+00 -1.10614e+01 -1.35248e+01
       O  4.54587e+00 -2.50025e+00 -1.32148e+01
       H  2.84074e+00 -3.50350e+00 -1.35234e+01
       H  5.92113e+00 -3.46328e+00 -1.34353e+01
       O  4.62031e+00 -1.26204e+01 -7.25649e-01
       H  4.42733e+00 -1.42017e+01 -9.72790e-02
       H  4.25247e+00 -1.25391e+01 -2.54252e+00
       O  2.63971e-01 -5.15196e+00 -7.57068e-01
       H  2.47118e-01 -7.06167e+00 -2.85480e-01
       H -1.22832e-02 -5.26511e+00 -2.49459e+00
       O  4.00518e+00 -1.20899e+01 -6.22640e+00
       H  2.41162e+00 -1.10401e+01 -6.83249e+00
       H  5.47974e+00 -1.10449e+01 -6.86804e+00
       O -2.47007e-01 -4.84043e+00 -6.32595e+00
       H -2.00275e+00 -3.75840e+00 -6.90770e+00
       H  1.11680e+00 -3.83087e+00 -6.77165e+00
       O -2.42272e-01 -9.64664e+00 -7.65367e+00
       H -6.35772e-02 -9.76698e+00 -9.64487e+00
       H -2.72867e-01 -7.76265e+00 -7.24319e+00
       O  3.96676e+00 -2.20215e+00 -7.72260e+00
       H  3.96911e+00 -2.09364e+00 -9.44711e+00
       H  4.16861e+00 -4.85148e-01 -7.17394e+00
       O  2.70737e-01 -9.99357e+00  7.20750e-01
       H -9.48729e-01 -1.09957e+01  1.99891e-01
       H  1.98844e+00 -1.09720e+01  1.46633e-01
       O  4.57885e+00 -2.64605e+00  6.19022e-01
       H  3.10771e+00 -3.61368e+00  3.43200e-01
       H  6.04441e+00 -3.63258e+00  3.51591e-01
       O  4.61097e+00 -1.24744e+01  1.30260e+01
       H  4.64716e+00 -1.45269e+01  1.35467e+01
       H  4.03674e+00 -1.26641e+01  1.13232e+01
       O  3.23295e-01 -5.15803e+00  1.30121e+01
       H  5.27418e-01 -6.82641e+00  1.35599e+01
       H -1.59455e-02 -5.18775e+00  1.12796e+01
       O  3.96556e+00 -1.21227e+01  7.54482e+00
       H  2.51878e+00 -1.10235e+01  7.38562e+00
       H  5.49426e+00 -1.11911e+01  7.03540e+00
       O -3.12224e-01 -4.74055e+00  7.58439e+00
       H -1.89726e+00 -3.85815e+00  7.43321e+00
       H  1.24246e+00 -3.82763e+00  7.17409e+00
       O -2.53968e-01 -9.53368e+00  6.11620e+00
       H -2.60803e-01 -9.10905e+00  4.07950e+00
       H -2.14683e-01 -7.86382e+00  6.76227e+00
       O  3.96273e+00 -2.25484e+00  6.11394e+00
       H  4.12918e+00 -1.82604e+00  4.45925e+00
       H  3.98625e+00 -8.50943e-02  6.74503e+00
       O  2.97868e-01  4.77370e+00 -1.31562e+01
       H -1.21452e+00  3.75843e+00 -1.36627e+01
       H  1.74760e+00  3.75529e+00 -1.38370e+01
       O  4.52645e+00  1.21077e+01 -1.31616e+01
       H  3.17219e+00  1.10951e+01 -1.35512e+01
       H  6.11887e+00  1.11095e+01 -1.36325e+01
       O  4.53642e+00  2.18482e+00 -7.91049e-01
       H  4.59572e+00  2.86758e-01  4.69511e-02
       H  4.32970e+00  2.12938e+00 -2.58615e+00
       O  2.45819e-01  9.55567e+00 -7.63171e-01
       H  2.87203e-01  7.89298e+00 -1.72688e-01
       H -1.11406e-02  9.37420e+00 -2.45892e+00
       O  3.99171e+00  2.52704e+00 -6.23010e+00
       H  2.55299e+00  3.58345e+00 -6.47297e+00
       H  5.52260e+00  3.44760e+00 -6.63918e+00
       O -2.01036e-01  9.93995e+00 -6.28123e+00
       H -1.75481e+00  1.09839e+01 -6.62397e+00
       H  1.22518e+00  1.07800e+01 -6.80379e+00
       O -2.94796e-01  5.23575e+00 -7.69695e+00
       H -9.48617e-02  5.13554e+00 -9.31756e+00
       H -9.10079e-02  7.08570e+00 -7.22900e+00
       O  3.87881e+00  1.25453e+01 -7.64763e+00
       H  4.24185e+00  1.26314e+01 -9.60842e+00
       H  4.14253e+00  1.41409e+01 -7.36640e+00
       O  2.81260e-01  4.78637e+00  6.68121e-01
       H -1.19258e+00  3.58882e+00  1.42728e-01
       H  1.63600e+00  3.54555e+00  2.36193e-01
       O  4.50864e+00  1.21980e+01  6.34787e-01
       H  3.15464e+00  1.10111e+01  3.03194e-02
       H  6.10656e+00  1.12113e+01  3.60041e-01
       O  4.50004e+00  2.23928e+00  1.30511e+01
       H  4.48952e+00  1.84079e-01  1.37116e+01
       H  4.29504e+00  1.97567e+00  1.12055e+01
       O  2.44345e-01  9.55234e+00  1.30101e+01
       H  2.89255e-01  7.85937e+00  1.38803e+01
       H  1.19606e-01  9.48188e+00  1.11668e+01
       O  3.96037e+00  2.56597e+00  7.57108e+00
       H  2.45296e+00  3.58367e+00  7.00410e+00
       H  5.53069e+00  3.56367e+00  7.14962e+00
       O -3.33383e-01  9.85850e+00  7.55581e+00
       H -1.77295e+00  1.10089e+01  7.50579e+00
       H  1.19235e+00  1.08600e+01  6.94194e+00
       O -3.45097e-01  5.19653e+00  6.14238e+00
       H -4.47422e-01  5.40523e+00  4.45196e+00
       H -2.53221e-01  6.87557e+00  6.64482e+00
       O  3.96496e+00  1.25459e+01  6.13820e+00
       H  4.02232e+00  1.26893e+01  4.34955e+00
       H  3.81500e+00  1.43396e+01  6.86266e+00
192
# CELL(abcABC):   16.99620    29.43815    27.67315    90.00000    90.00000    90.00000  Step:          30  Bead:      12 positions{atomic_unit}  cell{atomic_unit}
       O -8.18705e+00 -9.96346e+00 -1.31226e+01
       H  7.15031e+00 -1.08373e+01 -1.37655e+01
       H -6.64249e+00 -1.10140e+01 -1.37891e+01
       O -4.01427e+00 -2.55298e+00 -1.31459e+01
       H -5.48871e+00 -3.88515e+00 -1.34247e+01
       H -2.59807e+00 -3.61130e+00 -1.35271e+01
       O -3.98072e+00 -1.25017e+01 -7.48804e-01
       H -3.79174e+00 -1.42320e+01 -3.58022e-01
       H -4.18139e+00 -1.26108e+01 -2.65233e+00
       O -8.16273e+00 -5.18153e+00 -7.66211e-01
       H -8.30519e+00 -6.92409e+00 -3.22792e-01
       H -8.48423e+00 -5.16952e+00 -2.53815e+00
       O -4.46291e+00 -1.21912e+01 -6.23775e+00
       H -6.05104e+00 -1.10747e+01 -6.52301e+00
       H -2.96631e+00 -1.11204e+01 -6.70879e+00
       O  8.25918e+00 -4.74289e+00 -6.31162e+00
       H  6.79005e+00 -3.75451e+00 -6.39888e+00
       H -7.10614e+00 -3.64309e+00 -7.11244e+00
       O  8.19021e+00 -9.51436e+00 -7.66723e+00
       H  8.25348e+00 -9.58897e+00 -9.47890e+00
       H  8.14861e+00 -7.62361e+00 -7.11703e+00
       O -4.56925e+00 -2.09274e+00 -7.72047e+00
       H -4.25243e+00 -2.17938e+00 -9.65428e+00
       H -4.55067e+00 -8.31779e-02 -7.34313e+00
       O -8.23079e+00 -9.84490e+00  6.69521e-01
       H  7.39991e+00 -1.11766e+01  5.75234e-02
       H -6.98234e+00 -1.10765e+01  1.93325e-01
       O -3.93438e+00 -2.59957e+00  6.93665e-01
       H -5.41198e+00 -3.63736e+00  3.80368e-01
       H -2.48407e+00 -3.68659e+00  5.18870e-01
       O -3.97210e+00 -1.25203e+01  1.30274e+01
       H -3.75805e+00 -1.44102e+01  1.33981e+01
       H -4.11867e+00 -1.26281e+01  1.13119e+01
       O -8.15985e+00 -5.15470e+00  1.30369e+01
       H -8.00185e+00 -6.95638e+00  1.36613e+01