192
# CELL(abcABC):   16.99620    29.43815    27.67315    90.00000    90.00000    90.00000  Step:           0  Bead:       6 velocities{atomic_unit}  cell{atomic_unit}
       O  8.42421e-05  5.97376e-04 -7.29141e-04
       H -6.45178e-03 -1.01431e-03 -4.70651e-03
       H -2.07852e-04  3.56510e-03  2.15740e-03
       O -1.37036e-03  6.39966e-04  2.69709e-04
       H  3.30135e-03 -1.27997e-03 -5.71004e-04
       H -4.12554e-03  9.76796e-04 -6.01506e-03
       O  1.82090e-03 -1.64185e-04  8.56555e-04
       H  2.41403e-03  1.31501e-03  4.81886e-03
       H -1.70381e-03 -5.48627e-03 -1.23509e-03
       O  1.04649e-03 -5.41884e-07 -5.40511e-04
       H  3.08055e-03 -8.96895e-04  2.64183e-03
       H -5.04837e-03 -5.08724e-03 -2.39654e-04
       O -1.10926e-04  5.87139e-06  6.11117e-04
       H -3.34599e-03  1.94122e-03 -1.07435e-03
       H  1.55042e-03  4.05711e-03  3.68815e-03
       O -1.30684e-04  5.25625e-04 -9.59778e-04
       H  3.12610e-03 -2.54941e-03 -1.45582e-04
       H -6.18351e-03 -1.91767e-03  4.47433e-03
       O -1.86132e-04 -8.57229e-04  2.38075e-03
       H  3.09582e-03 -1.74020e-03  3.04604e-03
       H -1.61496e-04 -2.29102e-04  2.18466e-03
       O  3.17828e-04 -1.64007e-03  8.24888e-04
       H  3.53087e-03 -3.08756e-03  3.38196e-03
       H -4.02130e-03 -3.23457e-03 -6.05916e-05
       O -4.57741e-04 -1.23054e-03 -1.47506e-03
       H -3.98100e-03 -5.40380e-03  9.43201e-04
       H -1.51156e-03  3.13570e-03 -5.82639e-04
       O  8.00937e-05 -2.55375e-04 -1.02593e-04
       H  9.51323e-04 -7.53301e-03  3.02855e-03
       H  1.50194e-03  2.66359e-03  5.22749e-03
       O  6.58843e-04 -5.14259e-04 -6.54709e-04
       H  4.37168e-03  4.93214e-03  1.71962e-03
       H -7.43643e-04  1.21397e-04 -2.16580e-03
       O  1.12770e-03  2.28243e-03 -2.24824e-04
       H -5.35641e-03  4.46762e-03 -3.42017e-03
       H -2.40627e-03 -2.31431e-03 -3.19048e-03
       O -8.48908e-05  1.54444e-04  3.22532e-04
       H  3.18634e-03  2.54964e-03 -2.60499e-03
       H -3.39334e-03  2.11213e-03  5.18919e-03
       O -9.02262e-04 -1.10051e-03 -5.78729e-05
       H -2.23700e-03  3.79818e-03  3.33962e-03
       H  2.72116e-04 -2.46673e-05  8.05070e-05
       O -8.50812e-04  6.78670e-04  2.88223e-04
       H  5.17984e-03 -3.41610e-04 -4.02009e-03
       H -4.07637e-03 -1.06424e-03  5.20665e-03
       O -1.15540e-03  1.10083e-04 -1.59534e-03
       H -5.31148e-03  2.72306e-03  2.20444e-03
       H  5.75865e-03 -3.31148e-03 -2.75290e-03
       O -7.19632e-04 -1.57451e-03 -6.72997e-04
       H -3.40385e-03 -1.28680e-03 -4.72370e-03
       H  2.45211e-03  1.13284e-03 -1.04053e-03
       O  1.88990e-04 -4.76704e-04 -6.29751e-04
       H  6.46548e-03  8.30596e-03  2.50705e-03
       H -1.73071e-03  4.33800e-03  6.16316e-03
       O -1.51302e-03  8.78049e-04 -2.50921e-04
       H -6.07900e-03  1.95013e-03 -5.22252e-03
       H -2.63442e-03  7.32035e-03 -9.95086e-04
       O  1.17039e-04 -1.24081e-03  4.61808e-04
       H  8.72944e-04  2.66441e-03 -3.47511e-03
       H -1.66049e-03  7.80760e-03  2.84376e-03
       O  3.50960e-04 -7.37088e-04 -1.72116e-03
       H  4.78013e-03  7.52319e-04  4.30618e-03
       H  7.71166e-04 -4.48183e-03  1.04773e-03
       O  7.29064e-04  4.28371e-04  1.83943e-04
       H -2.06965e-03 -6.39755e-03  2.73692e-03
       H  6.00401e-03  5.19677e-03  9.58917e-04
       O  2.05784e-04 -3.69330e-05 -1.36177e-04
       H  4.71450e-04 -2.93497e-03  6.00749e-03
       H  7.50930e-04  3.57056e-04  3.61140e-03
       O  1.85546e-04 -2.08470e-03 -1.06236e-03
       H -2.14083e-03 -2.12363e-03 -2.25609e-04
       H  2.72177e-04  1.03962e-02 -6.10023e-03
       O -1.19682e-03 -1.90946e-03  9.83050e-04
       H -4.78064e-03 -3.01882e-03  1.99664e-03
       H -1.96324e-03 -3.58940e-03  5.00329e-03
       O -5.65870e-04  1.15075e-03 -5.45266e-04
       H -1.96558e-03 -1.96627e-03  5.02353e-03
       H -1.94530e-04  1.39191e-03 -2.48334e-03
       O -1.31397e-03  9.14549e-04 -3.36886e-04
       H -1.31032e-03 -3.31515e-03  2.30247e-03
       H -3.01833e-03  1.62328e-03  1.61709e-03
       O  6.54905e-04 -1.17532e-03 -3.61289e-04
       H -6.92234e-03 -8.25438e-04  2.22736e-03
       H  1.97787e-03  2.04748e-04 -1.41080e-03
       O  2.40510e-03 -1.43637e-03 -6.54856e-04
       H -1.56862e-03  6.72572e-04 -2.41007e-03
       H  4.05141e-03 -5.97217e-04  9.15582e-04
       O  1.13034e-03  1.43701e-03 -2.68764e-05
       H -2.04631e-03  3.25120e-04  2.81174e-03
       H -6.45178e-03 -2.97372e-03 -2.66948e-03
       O  2.83836e-04  3.09160e-04 -1.60366e-03
       H -4.55262e-03 -6.63630e-03 -7.17946e-04
       H -2.63391e-03 -4.12644e-03 -7.73806e-04
       O  3.43946e-06 -4.79736e-04  1.79928e-04
       H  5.23498e-03  2.30529e-03 -8.96733e-04
       H  6.55307e-03 -8.77643e-04  2.98568e-03
       O -2.79869e-04 -4.24231e-04  1.38356e-03
       H  8.87296e-04 -6.08504e-03  3.03203e-03
       H -3.24400e-03 -8.18482e-04  1.16183e-03
       O -2.19445e-03 -1.28097e-04  1.28118e-04
       H -2.10755e-03 -7.14887e-04  7.38974e-04
       H  2.91546e-03 -4.76328e-03 -1.81459e-04
       O  1.16063e-03 -4.62464e-04  2.53401e-04
       H  3.57610e-03 -4.88595e-03  9.58110e-03
       H -2.96962e-03  3.00441e-03 -2.19118e-03
       O  2.10114e-03  8.90318e-04  1.59745e-03
       H -1.88701e-03  1.02054e-02  2.51483e-03
       H -6.22613e-03 -2.01930e-03 -5.13284e-03
       O -1.35471e-05  7.73311e-04  4.54613e-04
       H -1.44485e-03 -5.12760e-03  5.70509e-03
       H -7.30809e-03 -4.70726e-03 -1.15480e-02
       O  4.36446e-04  7.18011e-04  9.31050e-04
       H -3.30377e-03 -5.48548e-04 -6.66704e-03
       H -4.07175e-03 -3.31149e-03 -5.24023e-03
       O -7.25364e-04 -5.61007e-04 -1.18692e-03
       H  2.33427e-03  2.41585e-03  6.99075e-03
       H -1.68227e-03  1.51225e-03 -5.88078e-04
       O -9.44385e-04  2.98389e-04  9.90468e-05
       H -8.58085e-04 -3.84266e-03 -5.06763e-05
       H  1.47428e-03 -3.51844e-03 -4.21872e-03
       O -2.52462e-03 -1.15048e-03 -1.81338e-04
       H  4.53948e-04  1.27485e-03 -1.43270e-03
       H -2.07323e-03 -5.37533e-03 -3.95362e-03
       O -6.14675e-04 -6.27188e-04 -6.07361e-04
       H  2.62947e-03 -8.94860e-04 -1.74973e-03
       H -2.42265e-03  1.97279e-03  1.14249e-04
       O  6.83676e-04 -8.32431e-04 -8.05368e-04
       H -3.02340e-03 -1.86726e-03 -3.31331e-03
       H -3.55738e-03 -3.51133e-04 -6.16494e-04
       O -6.40598e-04 -8.78428e-04 -9.16312e-04
       H -2.75972e-03 -2.81625e-04 -7.59582e-03
       H -7.09786e-03 -3.99254e-03 -1.85840e-04
       O -6.64018e-04 -1.16918e-03 -7.25598e-04
       H -1.94621e-03 -4.33720e-03  4.14099e-04
       H -6.07170e-03  5.74430e-04 -3.11473e-03
       O  9.38293e-04  9.48328e-04  9.61824e-04
       H -7.51051e-03  1.40243e-03  6.61987e-05
       H -6.52588e-06  3.34333e-03  2.25193e-03
       O  2.14191e-04 -4.69330e-04 -1.36772e-03
       H -2.52087e-03 -1.64382e-03  1.54223e-03
       H  8.36611e-04  1.78602e-03 -5.17537e-03
       O  1.28810e-03 -1.01630e-03 -5.64078e-04
       H -2.70243e-04 -3.98977e-04  3.04513e-03
       H -1.64662e-03  6.25904e-05 -2.97197e-03
       O -1.74590e-03 -4.75372e-04 -2.55085e-04
       H  2.73354e-03 -4.16579e-03 -9.38687e-04
       H  2.58817e-05  5.28036e-03 -7.23201e-03
       O  2.35467e-04 -2.06773e-04  1.46518e-03
       H  1.29019e-03 -3.22821e-03 -2.36848e-03
       H -1.39976e-03 -4.16144e-03  5.93277e-04
       O  1.00724e-04 -2.16426e-04  3.48412e-04
       H -8.58785e-04 -1.86570e-03  2.94071e-03
       H -5.62149e-03  1.93930e-03  4.16854e-03
       O -3.38052e-04 -8.41104e-05  3.33283e-04
       H  9.30003e-04 -4.39377e-03  9.02346e-03
       H  3.02252e-03 -2.39589e-04 -1.69954e-03
       O  9.41940e-05  8.78718e-04  1.11961e-03
       H -3.95231e-03 -5.93793e-03  4.90271e-03
       H -8.69599e-05 -2.85248e-04 -3.14440e-03
       O  9.65740e-04  6.37441e-04  3.80849e-05
       H -1.21110e-03 -1.84500e-03 -3.97404e-03
       H  1.44615e-03 -2.81247e-03 -4.72256e-04
       O  1.62640e-04  9.58381e-04 -3.44548e-04
       H -3.14165e-03  4.23919e-03  5.75243e-03
       H -1.54431e-03  2.05934e-03 -1.63466e-03
       O  8.64500e-04 -2.91314e-05 -1.90855e-03
       H  2.69898e-03  2.88296e-03  5.13288e-03
       H  2.68902e-03 -3.97341e-03 -1.19413e-03
       O -4.34738e-04  1.68768e-04 -3.40924e-04
       H -6.49572e-03 -1.61370e-03  3.96405e-03
       H  3.89142e-03 -1.82832e-03  2.28160e-04
       O -2.29505e-04  4.36105e-04  1.16808e-03
       H  1.84298e-04  7.17665e-03 -2.46615e-04
       H  1.58143e-03  5.87159e-03 -4.93455e-03
       O  7.57043e-04  9.85780e-04 -1.34958e-04
       H -2.31943e-03  2.64241e-03 -3.91348e-03
       H  4.58552e-03 -3.34001e-03  3.81699e-03
       O  5.99692e-04 -4.58684e-04 -1.50640e-03
       H  1.95882e-03 -2.14143e-03  1.96187e-03
       H -7.25787e-03  3.69248e-04  8.13684e-03
       O  1.42734e-03  1.17198e-04  9.59158e-05
       H  7.34122e-04 -4.52515e-03 -1.20747e-03
       H -1.33241e-03 -4.83683e-03  2.67676e-03
       O  1.31141e-03  1.22893e-04  1.37252e-03
       H  2.78507e-03  3.59645e-03  2.98213e-03
       H -3.26317e-04  1.03395e-03  5.68144e-03
       O -2.33039e-05  5.54686e-04 -1.66457e-03
       H -6.60773e-03 -1.36558e-03 -3.33974e-03
       H  1.59795e-03 -1.19079e-03  3.25033e-03
       O -1.27520e-04 -1.49346e-03 -9.22964e-04
       H  2.24734e-03  1.44953e-03  2.04379e-04
       H -6.23964e-03  6.07185e-03  3.41360e-03
192
# CELL(abcABC):   16.99620    29.43815    27.67315    90.00000    90.00000    90.00000  Step:          10  Bead:       6 velocities{atomic_unit}  cell{atomic_unit}
       O -2.53792e-04  2.28208e-04  1.16989e-03
       H  1.72527e-03 -2.24923e-03 -8.00948e-04
       H  4.23220e-03 -1.49602e-03 -2.53707e-03
       O  1.95709e-04  1.46867e-04 -9.99841e-04
       H  1.34691e-03 -2.07010e-03  5.19903e-04
       H  2.18927e-03  6.59556e-03 -1.14284e-03
       O -1.25104e-03  7.29204e-04 -8.03147e-04
       H  1.56661e-03 -2.67579e-03  2.05537e-03
       H  2.02128e-03 -5.31444e-03  7.57818e-04
       O -5.23204e-04  1.49925e-05  3.13668e-04
       H  2.04221e-03  9.31117e-04  3.69255e-03
       H -4.45177e-03  8.49239e-04  5.97220e-03
       O  2.64518e-04  4.93877e-04 -2.02352e-03
       H -6.08295e-04 -2.68876e-03 -7.07757e-03
       H  4.55766e-03 -5.27316e-03  4.08450e-03
       O  1.12251e-03  1.14420e-03 -4.35852e-04
       H -3.99042e-03 -1.96231e-03  6.21983e-03
       H  8.54220e-03  1.88081e-03  4.25214e-03
       O  3.14910e-05 -6.90238e-04  3.41190e-04
       H  3.59503e-03 -2.47462e-03  3.62427e-03
       H  1.49504e-03  2.54331e-03 -8.21374e-04
       O  6.25590e-05 -4.72781e-04 -5.82309e-04
       H -8.87746e-04 -7.87255e-03 -1.91620e-03
       H  5.34257e-04  6.73820e-03  3.62842e-03
       O  3.47054e-04 -8.03432e-04  1.17340e-03
       H  4.07660e-03 -6.64158e-04  2.05376e-03
       H  2.47399e-03 -7.69036e-03  7.40651e-04
       O -1.41646e-04 -9.01581e-04 -6.30636e-04
       H -9.47774e-04  2.97544e-03  7.12410e-03
       H  3.44294e-03 -6.61534e-03  7.66693e-04
       O  2.41902e-04 -1.82551e-03 -2.60106e-04
       H  9.82307e-04  1.51375e-03 -1.94985e-03
       H -2.30175e-03 -3.26323e-03 -6.96118e-03
       O  5.19666e-06 -9.25267e-04 -5.71553e-04
       H -4.14742e-03 -3.28836e-03  1.02112e-03
       H -2.76580e-03 -2.32397e-03  5.25882e-03
       O  8.78859e-04 -9.63275e-04  1.62352e-03
       H -5.50136e-03  2.27716e-03  2.34559e-03
       H -2.54525e-04  5.12191e-03  1.66937e-03
       O -4.63551e-04  1.17546e-03 -8.87900e-04
       H  3.95286e-03 -7.25433e-03  1.05869e-03
       H -2.94811e-03 -2.11181e-03  4.96188e-03
       O  1.83678e-04  4.51042e-04  1.79027e-04
       H  2.33555e-03 -4.47673e-03  7.41467e-03
       H -3.25334e-03 -1.86528e-03 -5.48522e-03
       O -1.04747e-03  1.30339e-03 -4.85692e-04
       H  1.14360e-03  3.94045e-03  1.94929e-03
       H  7.62152e-03  9.60071e-04 -2.26333e-03
       O -5.85083e-04 -1.12899e-03 -2.00518e-04
       H  6.81101e-04  1.96885e-03 -2.59624e-03
       H  3.83577e-03 -2.40507e-03  3.89982e-03
       O  4.53861e-05 -9.72664e-04  1.09401e-03
       H  5.61781e-03 -4.87711e-03  3.86262e-03
       H -5.29671e-03  6.33922e-03  5.87881e-03
       O  8.83358e-04  1.56102e-04 -1.58962e-03
       H -2.86889e-03  2.68490e-03  6.84110e-03
       H -6.59824e-03  1.84397e-03  5.21116e-04
       O  2.14608e-04 -2.50336e-04 -6.51218e-04
       H -2.09162e-03  2.70568e-03 -1.88842e-03
       H  2.03871e-03  1.21000e-03  1.47822e-06
       O  1.01138e-03  2.40509e-04  7.43075e-04
       H -6.32176e-03 -5.29812e-03 -3.24803e-03
       H  8.43521e-04 -2.90611e-04 -2.24463e-03
       O -2.67335e-04 -7.92374e-04 -8.59672e-04
       H -2.44146e-03  2.52263e-03  1.86120e-03
       H  2.79995e-03 -4.91018e-03  7.28090e-04
       O -8.99557e-05  8.93411e-04 -5.04264e-04
       H  7.16237e-03  1.94629e-03 -1.30390e-03
       H  4.65634e-03  4.46337e-03 -5.78224e-03
       O -5.86382e-04  1.35181e-03  6.56292e-04
       H  3.93168e-04 -6.50457e-05 -1.02878e-02
       H -4.84641e-03  3.81541e-03 -3.59996e-03
       O -1.98563e-04  9.45640e-04 -6.81676e-04
       H -2.31442e-03  2.35267e-03 -2.11473e-03
       H  3.91314e-03 -3.71834e-03 -6.50224e-03
       O  7.77509e-04  8.09661e-04  1.53148e-03
       H  1.13903e-03 -1.48318e-03 -6.45831e-03
       H -4.24562e-03  1.69687e-03 -1.19753e-03
       O -7.33579e-04 -1.62748e-03  4.37633e-04
       H  5.87586e-04 -1.02299e-03 -5.65890e-04
       H -1.88274e-03 -1.09206e-03  7.89283e-03
       O -6.23686e-04  4.60278e-05  2.07023e-04
       H  1.30868e-03  2.79503e-05  4.78565e-03
       H -1.29324e-03  6.55801e-03 -1.87853e-03
       O -1.83333e-04  1.46004e-03 -5.67225e-04
       H  2.93596e-04 -8.59154e-04  2.00117e-04
       H -2.37442e-03  2.93750e-03 -2.45252e-03
       O -7.17890e-04  1.05138e-03 -3.37437e-04
       H  5.82374e-03 -3.57893e-03 -2.51362e-03
       H -8.73711e-04  2.85305e-03 -9.01141e-04
       O -5.08116e-04  2.33804e-04 -2.16938e-04
       H -3.70050e-03 -1.16423e-03  4.38978e-03
       H -1.30275e-03 -2.88722e-04 -2.33258e-03
       O  1.96811e-03 -1.17406e-03 -1.88984e-03
       H -2.68521e-03 -2.83048e-03 -6.35715e-03
       H  8.77421e-03  6.88766e-03  3.96389e-03
       O -3.47493e-04  6.82086e-04 -2.79119e-04
       H  6.51366e-04 -2.84174e-03  1.16948e-03
       H  1.59366e-03 -1.27655e-03 -1.94998e-03
       O  3.38858e-04  7.21885e-06  1.94110e-03
       H -2.04835e-04  1.42812e-03  8.34089e-04
       H -2.36447e-03  5.00897e-03  2.04545e-03
       O  1.07542e-03 -4.22685e-04  7.36086e-04
       H  2.27712e-03 -3.78433e-03  3.10265e-03
       H -3.36001e-03  8.27416e-03 -4.49613e-03
       O -2.55366e-04 -2.92332e-04 -3.66061e-04
       H -5.94434e-04  3.59700e-03  1.40586e-03
       H  6.34221e-03  2.79205e-03  1.43150e-04
       O -4.44276e-04  7.49790e-04 -7.39945e-04
       H -1.79023e-04 -5.65033e-04  4.37267e-03
       H  8.09985e-03 -2.00899e-03 -2.26553e-03
       O -8.72010e-05 -1.29434e-03  3.24876e-04
       H  3.26020e-04  3.83975e-03  4.30826e-05
       H  3.54326e-04 -1.08740e-03  1.01430e-02
       O -5.07573e-04 -3.28888e-04  2.17304e-03
       H  3.63276e-03  4.51175e-03 -7.87685e-04
       H  9.44209e-04  7.73962e-04 -1.16900e-03
       O  6.65181e-04  2.90530e-04  1.82096e-03
       H  3.46271e-03 -6.53895e-03 -4.80676e-03
       H  1.06900e-03 -3.31668e-03  1.47434e-03
       O -1.40902e-03  7.10955e-04 -5.36589e-04
       H  3.42259e-03 -1.43759e-03  3.84425e-03
       H -6.17229e-03 -1.71314e-03 -2.16987e-03
       O  1.68025e-03  5.43288e-04  2.63649e-04
       H  2.97757e-03 -5.44478e-03  1.68069e-03
       H  8.27382e-03  1.38200e-03 -1.47996e-04
       O -4.49377e-05  1.26010e-04 -4.02566e-04
       H  8.81694e-04 -7.63193e-03 -4.90312e-03
       H -8.54619e-03 -2.39300e-03  4.27206e-04
       O -8.08889e-04  1.20537e-03  2.10073e-03
       H -4.96744e-03 -1.22578e-03  7.54299e-03
       H -7.94216e-03  1.68343e-03  1.94608e-03
       O -1.03932e-03 -8.40312e-04  1.13168e-03
       H  6.88428e-03  2.38170e-03 -1.75441e-03
       H -1.96081e-03  5.09096e-03 -1.79617e-03
       O  1.20135e-03  1.16073e-03  7.19810e-05
       H  2.60345e-04 -4.16023e-03 -1.38946e-03
       H  5.66451e-03  4.66012e-04 -5.69270e-03
       O -1.09488e-03  5.49478e-05 -1.95868e-04
       H  6.33930e-03  5.09778e-03 -8.53830e-04
       H -9.50542e-04  4.99616e-03 -6.89023e-03
       O  1.06145e-03  6.72148e-04 -1.73599e-03
       H  2.46033e-03 -1.38794e-04 -5.58677e-03
       H -1.07869e-04 -1.41809e-03 -9.90083e-04
       O -5.37247e-04  2.02833e-04  1.38433e-03
       H  9.62890e-04 -2.09717e-05 -1.86663e-03
       H -2.83565e-03  2.90510e-03  1.04174e-03
       O -3.66383e-04  6.57746e-04  1.24476e-04
       H -3.49751e-03  5.94617e-03 -7.12031e-03
       H -3.31751e-04 -1.52341e-05  7.68867e-04
       O -7.42379e-04  1.01304e-03  9.70522e-04
       H -7.37014e-03  7.28915e-03  2.61209e-03
       H  1.09861e-03 -3.21644e-03  2.21451e-03
       O -3.54589e-04 -5.12566e-04 -1.80766e-03
       H  6.63181e-04 -9.99989e-04 -1.67509e-03
       H  1.55684e-03 -7.40820e-04  3.64954e-03
       O  5.84160e-04 -7.84565e-04  1.41134e-03
       H  2.16344e-03 -8.68832e-04  1.60978e-03
       H -8.10751e-04 -8.57321e-04  5.77668e-03
       O  8.50320e-04 -9.89489e-04 -8.22738e-04
       H -3.25959e-03  3.22130e-03 -1.80603e-03
       H  3.15454e-03  2.16669e-03 -1.07293e-03
       O -1.85211e-03  9.84060e-04 -6.76665e-04
       H  1.13173e-03 -3.62756e-03  5.79508e-03
       H  1.35720e-03 -3.89527e-03  1.77173e-03
       O  3.51019e-04  1.67031e-03 -2.02757e-03
       H  2.23534e-04 -6.78416e-04  4.31793e-03
       H -2.25567e-03 -1.83476e-03  6.67926e-04
       O -2.27926e-04  8.36575e-04  4.48365e-04
       H  1.61154e-03  3.36582e-03 -2.36220e-03
       H  1.21401e-03 -2.15561e-04  3.68725e-03
       O -6.50062e-05 -7.23476e-04  5.01277e-04
       H -2.49936e-03 -3.38221e-03  2.13943e-03
       H -3.97784e-03 -3.13944e-03 -4.34048e-03
       O -1.98546e-04  3.29946e-03  1.53838e-03
       H -2.96059e-03 -3.33223e-04  1.16093e-03
       H  3.86085e-03 -5.79326e-04  7.30286e-05
       O -1.41074e-03 -9.86752e-04 -8.85196e-04
       H  5.58585e-03 -1.39742e-03  1.63836e-03
       H -4.80231e-03 -2.63319e-03 -4.97071e-03
       O -3.69686e-04 -6.74719e-04  1.18426e-03
       H -9.47626e-03  2.36492e-03  9.83368e-04
       H -1.50645e-03 -3.89035e-03  5.30887e-03
       O -4.15229e-04 -6.94953e-04  4.63042e-05
       H  1.70427e-04  4.57139e-03 -8.18826e-05
       H -7.11597e-04  1.99012e-03  6.75930e-03
       O -2.79295e-04  4.30132e-04  1.11516e-03
       H -5.70584e-04  5.71003e-03  3.03051e-03
       H -5.58292e-04  5.62567e-04  4.01661e-03
       O -1.23510e-03 -9.43694e-04  1.18092e-05
       H -3.62397e-03  6.39795e-03  1.87160e-03
       H -6.87580e-03  2.29776e-03 -1.91395e-03
192
# CELL(abcABC):   16.99620    29.43815    27.67315    90.00000    90.00000    90.00000  Step:          20  Bead:       6 velocities{atomic_unit}  cell{atomic_unit}
       O  3.23899e-04 -4.40845e-04  1.01596e-03
       H  2.71037e-03  4.14156e-03 -2.00827e-04
       H -3.44137e-04 -2.67009e-03  4.64492e-04
       O -4.53679e-04  3.31669e-04 -1.42512e-04
       H  6.98512e-03 -1.42800e-03 -5.54058e-03
       H  1.49386e-03 -2.03361e-03 -3.74852e-03
       O  6.47622e-04  2.03474e-04 -1.24402e-03
       H -6.16197e-04  1.79953e-03  3.42291e-03
       H -2.58739e-03 -5.49463e-03  1.25543e-04
       O -3.80665e-04  1.29172e-03  8.02021e-04
       H -8.29234e-04  4.06042e-04 -1.36739e-03
       H -3.05426e-05  3.07905e-03 -3.09482e-03
       O  8.16891e-04  7.38476e-04  9.62912e-04
       H -3.11086e-03  5.81628e-03  3.46628e-03
       H -4.71680e-03  2.71438e-04 -5.01887e-03
       O  9.57357e-04  4.60364e-04 -5.62349e-04
       H  2.60042e-03 -5.04813e-03 -2.95261e-03
       H  1.43441e-03 -1.39364e-04 -1.06415e-04
       O -5.27044e-04 -9.82157e-04 -2.45951e-04
       H  5.37631e-03 -2.12811e-03  3.34768e-04
       H -4.83743e-03 -4.13142e-03 -3.61416e-04
       O -5.93813e-04 -7.96326e-04  9.10120e-04
       H  1.15532e-03 -8.37744e-03  2.25363e-03
       H  4.59675e-04  1.24854e-03 -5.38002e-04
       O -2.54208e-04  8.02528e-04  6.97637e-05
       H -7.82445e-03 -1.07533e-03  8.49939e-04
       H -4.67361e-03  1.98862e-03  2.16003e-03
       O -1.14141e-04 -1.19385e-03  8.63156e-04
       H -1.40036e-03  9.26156e-04 -7.02599e-03
       H -1.00510e-03 -3.29813e-04 -1.79057e-03
       O -3.80970e-04  2.91669e-04  3.11960e-04
       H  1.63258e-03 -1.48048e-03  8.43586e-04
       H  2.68552e-03 -2.48666e-03 -1.60272e-03
       O  5.11682e-04 -5.07268e-04 -6.01679e-04
       H -2.59197e-03 -2.58942e-03 -1.97980e-03
       H -4.76573e-04  2.64136e-03  1.01604e-03
       O -5.26990e-04 -1.23833e-05 -9.56004e-04
       H -3.18801e-03 -2.34932e-03  6.18209e-04
       H -1.50917e-03 -5.95054e-03  8.56409e-04
       O  8.28096e-04  1.12926e-03  7.34989e-05
       H -1.69649e-03  8.25151e-03 -3.37191e-03
       H  9.39932e-04 -1.34291e-03  3.53907e-04
       O  4.79929e-04 -4.28270e-04 -6.29442e-04
       H  5.13282e-03  9.96642e-03  1.31029e-03
       H -1.77883e-03 -4.07280e-03  6.84534e-03
       O  1.21645e-03  2.21817e-04  1.18173e-03
       H -1.20767e-03 -3.30203e-03 -3.67110e-03
       H -1.18943e-02 -1.68345e-03 -1.90984e-03
       O  2.95367e-04  2.25724e-04 -1.66166e-03
       H  7.54997e-06 -8.94652e-03 -2.81156e-03
       H -3.96186e-03  1.45100e-03 -2.23812e-03
       O  5.26946e-04  1.04042e-03 -9.87485e-04
       H -1.91010e-03  1.12274e-03  2.51308e-03
       H  1.80182e-03  8.48852e-05 -3.42540e-04
       O  2.26900e-04  1.29300e-03 -4.80572e-04
       H -4.73206e-03  3.00454e-04 -3.21585e-03
       H  2.41905e-03 -9.47726e-04  5.25489e-03
       O -6.53842e-04 -1.61700e-04  9.69152e-04
       H -6.24083e-04 -2.34378e-03  1.67699e-03
       H  6.13421e-03  2.28346e-03 -1.97893e-03
       O  2.01922e-04 -3.82360e-04  1.95910e-04
       H -1.53129e-03  2.58912e-03  1.66710e-03
       H  2.82880e-03  6.53137e-03  2.76629e-03
       O -1.98078e-04 -1.36029e-03 -5.44287e-04
       H  9.30227e-04 -8.91567e-05  3.09978e-03
       H -6.18889e-04  1.43630e-03 -6.08876e-04
       O  1.00923e-03 -8.19198e-04  1.61506e-04
       H  3.03878e-04 -1.23566e-03 -2.66947e-04
       H  2.07610e-03 -2.30620e-03 -7.10131e-04
       O  4.57487e-04 -3.31213e-04 -9.76851e-04
       H -8.11820e-03  8.94549e-04 -3.14972e-03
       H  4.95360e-03  5.83080e-03  9.27393e-04
       O  5.65077e-04 -1.00756e-04  6.45497e-04
       H -1.91448e-03  3.20764e-03 -8.68715e-05
       H -4.59384e-04  4.21178e-03 -6.76943e-04
       O -1.66911e-05  2.50684e-04 -8.30105e-04
       H -1.01660e-02  2.59832e-03  3.09468e-03
       H -3.55751e-04 -2.46063e-03 -4.73395e-03
       O -5.54157e-04 -1.13223e-03 -7.47366e-04
       H  6.84883e-03  2.62049e-03 -3.72590e-03
       H -1.35913e-04  4.13297e-03  1.01259e-03
       O  1.65471e-03 -1.15938e-03  4.60169e-04
       H -8.73449e-03 -5.95126e-03 -2.84541e-03
       H -5.41543e-03  4.46626e-03  2.40937e-03
       O  2.32339e-04 -6.63036e-04  1.24833e-03
       H  1.45104e-03  3.40847e-04  2.21165e-03
       H  1.18766e-03  5.24759e-03 -2.60300e-04
       O  7.24236e-04 -3.39649e-04 -1.84395e-04
       H -2.70694e-04  1.56303e-03 -5.01225e-03
       H -4.92358e-03  2.93187e-03  2.40566e-03
       O -2.49658e-04  2.81051e-04  1.04123e-03
       H -9.71195e-04 -2.52243e-03  6.00687e-03
       H  3.02180e-03 -4.51848e-03  9.20003e-04
       O -1.45734e-03 -1.88466e-03 -3.19929e-04
       H -1.28367e-03 -2.69834e-03  1.40973e-03
       H  7.24603e-04 -6.53066e-03 -2.23647e-03
       O -4.05852e-04  1.70833e-04 -2.19945e-03
       H  7.16357e-04 -2.21729e-04 -3.15100e-03
       H -1.64152e-03 -1.70435e-03  3.88217e-03
       O  1.06171e-04  1.06168e-03 -6.30506e-04
       H  3.72478e-03  6.79873e-04  4.40399e-03
       H  1.23430e-03  7.74788e-03 -3.14653e-03
       O  9.45662e-04 -2.22984e-04  2.00865e-03
       H  3.84741e-03 -2.05724e-03 -8.58388e-04
       H  1.85369e-03 -1.93368e-04  1.35677e-03
       O  5.22865e-04 -1.69903e-03  5.21654e-06
       H -3.77729e-03 -5.03861e-03 -8.37245e-03
       H -5.41343e-04 -3.07616e-03 -1.69100e-03
       O -1.28109e-04 -4.11837e-04 -5.17397e-04
       H -3.06152e-03 -1.01013e-03  1.91156e-03
       H  1.71606e-03 -4.67466e-03 -6.01394e-04
       O -2.99914e-05  7.10542e-04 -5.53024e-04
       H -6.84065e-03 -1.98155e-03 -3.39669e-04
       H -2.67388e-05 -2.97026e-04 -2.84939e-04
       O -2.02972e-04  5.37667e-04  1.23020e-04
       H -2.88407e-03  1.23815e-03 -7.78715e-03
       H -2.29633e-03  2.01997e-03  6.71041e-03
       O -3.71230e-05 -5.32346e-04 -1.08580e-03
       H -6.69573e-04 -2.27827e-03  5.05254e-03
       H  8.74966e-03  4.94425e-03 -4.69832e-03
       O -1.03994e-03 -1.84803e-04 -3.99829e-04
       H  8.37605e-04 -7.95806e-03 -2.50920e-03
       H  3.04843e-03  2.03683e-03  8.74497e-03
       O -6.02258e-04 -1.61104e-03  9.12776e-04
       H -1.60593e-03  4.48749e-03  1.02550e-03
       H  1.10657e-03  1.17964e-03 -8.39793e-04
       O -5.20591e-04 -1.53678e-04  1.01968e-03
       H  4.81043e-04  6.19179e-03  3.04293e-03
       H -4.74169e-03  3.48180e-03 -1.96038e-03
       O -6.76886e-05  3.03403e-04 -1.37770e-04
       H  4.54520e-03  2.61030e-03  6.25160e-03
       H -6.44136e-03 -6.88144e-03  1.03808e-03
       O -2.59011e-06  1.05357e-04 -5.21484e-04
       H -2.98281e-03  9.30545e-04  5.81714e-03
       H  2.00518e-03  4.82066e-03  1.77062e-03
       O -1.51781e-03  5.54617e-04 -7.72623e-04
       H -1.41293e-03  6.66324e-04  1.41550e-03
       H -1.38310e-03 -2.89635e-03  4.69254e-03
       O -2.73879e-04 -8.57893e-04 -1.11238e-03
       H -1.53742e-03  1.52450e-03 -2.01978e-03
       H -8.71134e-04 -1.82443e-03  1.78694e-03
       O  3.27904e-04 -1.88787e-03 -1.15211e-03
       H -3.22253e-03 -2.40436e-03  2.88544e-03
       H -2.85398e-03 -6.32492e-04  2.89557e-03
       O -7.25135e-04  5.60209e-04 -4.12955e-04
       H  2.34813e-03  1.17216e-03  7.78550e-03
       H  6.64610e-04  1.50392e-03  1.03461e-03
       O -2.22136e-04  5.80974e-04  4.11420e-04
       H  2.38992e-03  1.75200e-03 -5.10749e-03
       H  6.78676e-03 -4.01734e-03 -2.53987e-03
       O  6.23950e-05  4.17625e-04  5.23096e-04
       H  8.00913e-03  3.31742e-03 -2.68984e-03
       H -1.07039e-02 -5.77871e-03  1.41246e-03
       O  4.37860e-04 -2.66168e-04  6.40766e-04
       H -5.41737e-03 -5.45945e-05  2.12406e-03
       H -3.06171e-03 -7.55351e-03 -8.15436e-04
       O -6.52025e-04  6.83100e-04 -4.27499e-04
       H -3.10216e-03  5.81793e-03 -2.68331e-04
       H -9.15728e-04  1.49282e-03  4.68566e-03
       O -3.00698e-04 -1.89840e-04  8.42923e-04
       H -1.18362e-03  1.31730e-04 -2.19433e-03
       H  3.53999e-04 -4.23071e-03 -4.01218e-03
       O -4.82033e-04 -1.46913e-03  7.06999e-04
       H -2.69126e-03  4.68787e-03  2.90724e-03
       H  1.22195e-03  3.79575e-03 -2.32336e-03
       O  9.52442e-04  2.32555e-04  5.82885e-04
       H -2.95843e-03 -2.09960e-04  2.27935e-03
       H  7.44581e-04 -1.96322e-03 -3.45559e-03
       O  2.68910e-04 -1.49743e-03  5.20840e-04
       H -1.34811e-03  1.13949e-03  5.36969e-03
       H -5.48097e-04 -5.87600e-03 -1.56817e-03
       O  4.30517e-05 -8.13407e-04  1.76314e-03
       H -1.84187e-03 -3.36216e-03 -2.44736e-03
       H  3.51062e-04 -3.11882e-03  9.26533e-03
       O -1.56609e-05 -2.09178e-03 -4.97128e-04
       H  4.97692e-03  2.94273e-03  1.53362e-04
       H  4.11945e-03 -8.12317e-03 -6.80684e-03
       O  2.96428e-04  3.07743e-04 -3.08871e-04
       H -1.84684e-04  1.74604e-03  3.43250e-03
       H  5.45524e-04  3.33433e-03  3.76612e-03
       O  1.22423e-04 -1.44931e-03  1.50952e-03
       H  2.31542e-03 -1.27810e-03 -1.64027e-03
       H  2.56022e-03 -3.61053e-03 -2.93893e-03
       O -1.08644e-03  6.69589e-04  1.54697e-05
       H  3.42700e-03 -4.04009e-04 -7.37030e-04
       H  4.35814e-03  5.79755e-03 -2.36107e-03
       O -1.41107e-03  9.76148e-05 -1.92346e-04
       H  2.97536e-03  4.23091e-03  2.60674e-03
       H -1.08402e-03 -1.26437e-03 -2.60248e-03
       O  6.00101e-04 -3.17483e-04 -2.66117e-04
       H -8.31542e-03  1.67868e-03  3.01661e-03
       H  5.22441e-03 -6.48601e-04  4.67573e-03
192
# CELL(abcABC):   16.99620    29.43815    27.67315    90.00000    90.00000    90.00000  Step:          30  Bead:       6 velocities{atomic_unit}  cell{atomic_unit}
       O  1.11969e-03 -5.47046e-04  5.41335e-04
       H  5.33551e-03 -1.29003e-03  4.77562e-03
       H -9.15071e-04  4.81810e-03  2.32761e-03
       O  6.06193e-04 -9.76256e-04 -4.45058e-04
       H  1.99300e-04 -1.65182e-03  7.87393e-04
       H -2.37454e-03 -2.24958e-03  2.45062e-03
       O -1.29154e-03 -2.15180e-04  3.29047e-05
       H  4.00754e-04  2.59072e-03 -1.52313e-03
       H  8.91399e-04  2.22339e-03 -3.33864e-03
       O -1.03920e-03  1.47617e-04  1.50758e-04
       H -1.72284e-03 -2.47371e-03 -6.56822e-03
       H -1.30931e-03 -3.76093e-03  2.59722e-03
       O -3.34134e-04 -4.21501e-04 -1.25656e-03
       H  5.29370e-03  9.71903e-04  2.86896e-04
       H  2.06551e-03  8.37542e-04  4.96219e-03
       O -3.81771e-04 -1.31451e-03  5.00499e-05
       H  1.12565e-03  2.20346e-03  7.79245e-03
       H  5.82499e-03 -1.55348e-04  7.89188e-03
       O -1.07819e-04 -1.00215e-03 -2.19190e-04
       H -6.57787e-03  2.21178e-03 -2.22251e-03
       H -6.14186e-03 -6.92004e-04 -3.36305e-03
       O  3.82403e-04  3.07797e-04 -7.26459e-04
       H  1.18058e-03  4.01260e-03  4.64843e-03
       H -6.10386e-03 -5.42612e-03 -5.03233e-03
       O  7.38348e-04 -4.92699e-04  9.56081e-04
       H  2.25762e-03  3.58644e-03 -4.65045e-03
       H -1.92039e-03  4.63551e-03  4.18665e-04
       O -6.74039e-04  4.69688e-04 -4.55316e-04
       H -4.36786e-04  2.21994e-03 -1.04162e-04
       H  8.20734e-04 -1.36724e-03  4.00905e-03
       O  1.26605e-03 -5.26401e-04 -6.41671e-04
       H  1.87224e-03  2.14059e-03 -1.37389e-03
       H  7.30965e-05  6.76017e-03 -1.08600e-03
       O  8.39571e-04  4.57411e-04  6.97559e-04
       H -1.43659e-03 -5.72081e-03 -3.88456e-03