192
# CELL(abcABC):   16.99620    29.43815    27.67315    90.00000    90.00000    90.00000  Step:           0  Bead:      19 positions{atomic_unit}  cell{atomic_unit}
       O -8.21943e+00 -9.93714e+00 -1.31733e+01
       H  7.30975e+00 -1.09659e+01 -1.36333e+01
       H -6.70309e+00 -1.09427e+01 -1.35003e+01
       O -3.97045e+00 -2.57760e+00 -1.31733e+01
       H -5.43740e+00 -3.60640e+00 -1.36335e+01
       H -2.45410e+00 -3.58307e+00 -1.35002e+01
       O -3.95479e+00 -1.25494e+01 -7.82537e-01
       H -3.95303e+00 -1.43463e+01 -2.27998e-01
       H -4.14654e+00 -1.25640e+01 -2.59980e+00
       O -8.20381e+00 -5.18980e+00 -7.82573e-01
       H -8.20206e+00 -6.98662e+00 -2.28079e-01
       H -8.39554e+00 -5.20430e+00 -2.59985e+00
       O -4.52774e+00 -1.21415e+01 -6.25501e+00
       H -6.04401e+00 -1.11359e+01 -6.58198e+00
       H -3.06070e+00 -1.11128e+01 -6.71509e+00
       O  8.21948e+00 -4.78197e+00 -6.25503e+00
       H  6.70316e+00 -3.77646e+00 -6.58191e+00
       H -7.30970e+00 -3.75321e+00 -6.71514e+00
       O  8.20373e+00 -9.52922e+00 -7.70081e+00
       H  8.39566e+00 -9.51468e+00 -9.51806e+00
       H  8.20220e+00 -7.73240e+00 -7.14624e+00
       O -4.54345e+00 -2.16975e+00 -7.70084e+00
       H -4.35162e+00 -2.15526e+00 -9.51812e+00
       H -4.54503e+00 -3.72917e-01 -7.14634e+00
       O -8.21943e+00 -9.93697e+00  6.63195e-01
       H  7.30977e+00 -1.09657e+01  2.03202e-01
       H -6.70308e+00 -1.09425e+01  3.36227e-01
       O -3.97044e+00 -2.57760e+00  6.63173e-01
       H -5.43747e+00 -3.60635e+00  2.03069e-01
       H -2.45410e+00 -3.58312e+00  3.36346e-01
       O -3.95472e+00 -1.25494e+01  1.30540e+01
       H -3.95309e+00 -1.43462e+01  1.36086e+01
       H -4.14653e+00 -1.25640e+01  1.12368e+01
       O -8.20380e+00 -5.18990e+00  1.30541e+01
       H -8.20202e+00 -6.98672e+00  1.36085e+01
       H -8.39553e+00 -5.20434e+00  1.12368e+01
       O -4.52771e+00 -1.21415e+01  7.58159e+00
       H -6.04402e+00 -1.11360e+01  7.25460e+00
       H -3.06070e+00 -1.11128e+01  7.12152e+00
       O  8.21944e+00 -4.78191e+00  7.58149e+00
       H  6.70312e+00 -3.77633e+00  7.25453e+00
       H -7.30974e+00 -3.75322e+00  7.12139e+00
       O  8.20378e+00 -9.52926e+00  6.13582e+00
       H  8.39564e+00 -9.51474e+00  4.31856e+00
       H  8.20221e+00 -7.73246e+00  6.69037e+00
       O -4.54344e+00 -2.16971e+00  6.13568e+00
       H -4.35161e+00 -2.15522e+00  4.31840e+00
       H -4.54506e+00 -3.72896e-01  6.69017e+00
       O -8.21947e+00  4.78210e+00 -1.31734e+01
       H  7.30974e+00  3.75335e+00 -1.36334e+01
       H -6.70314e+00  3.77651e+00 -1.35002e+01
       O -3.97046e+00  1.21415e+01 -1.31733e+01
       H -5.43745e+00  1.11127e+01 -1.36334e+01
       H -2.45410e+00  1.11360e+01 -1.35002e+01
       O -3.95479e+00  2.16971e+00 -7.82462e-01
       H -3.95303e+00  3.72884e-01 -2.27933e-01
       H -4.14646e+00  2.15509e+00 -2.59975e+00
       O -8.20376e+00  9.52923e+00 -7.82499e-01
       H -8.20200e+00  7.73238e+00 -2.27998e-01
       H -8.39546e+00  9.51472e+00 -2.59977e+00
       O -4.52774e+00  2.57749e+00 -6.25512e+00
       H -6.04400e+00  3.58312e+00 -6.58197e+00
       H -3.06066e+00  3.60618e+00 -6.71512e+00
       O  8.21949e+00  9.93715e+00 -6.25509e+00
       H  6.70318e+00  1.09426e+01 -6.58202e+00
       H -7.30970e+00  1.09659e+01 -6.71526e+00
       O  8.20366e+00  5.18988e+00 -7.70077e+00
       H  8.39552e+00  5.20437e+00 -9.51803e+00
       H  8.20217e+00  6.98669e+00 -7.14625e+00
       O -4.54337e+00  1.25494e+01 -7.70088e+00
       H -4.35159e+00  1.25639e+01 -9.51817e+00
       H -4.54500e+00  1.43462e+01 -7.14634e+00
       O -8.21952e+00  4.78190e+00  6.63226e-01
       H  7.30971e+00  3.75313e+00  2.03107e-01
       H -6.70317e+00  3.77635e+00  3.36440e-01
       O -3.97040e+00  1.21415e+01  6.63326e-01
       H -5.43738e+00  1.11127e+01  2.03185e-01
       H -2.45407e+00  1.11360e+01  3.36426e-01
       O -3.95476e+00  2.16964e+00  1.30541e+01
       H -3.95303e+00  3.72832e-01  1.36087e+01
       H -4.14651e+00  2.15510e+00  1.12369e+01
       O -8.20373e+00  9.52937e+00  1.30540e+01
       H -8.20206e+00  7.73252e+00  1.36085e+01
       H -8.39548e+00  9.51483e+00  1.12368e+01
       O -4.52770e+00  2.57756e+00  7.58140e+00
       H -6.04399e+00  3.58315e+00  7.25450e+00
       H -3.06066e+00  3.60630e+00  7.12138e+00
       O  8.21951e+00  9.93714e+00  7.58157e+00
       H  6.70319e+00  1.09427e+01  7.25463e+00
       H -7.30968e+00  1.09658e+01  7.12140e+00
       O  8.20369e+00  5.18993e+00  6.13578e+00
       H  8.39547e+00  5.20441e+00  4.31850e+00
       H  8.20212e+00  6.98674e+00  6.69030e+00
       O -4.54348e+00  1.25494e+01  6.13570e+00
       H -4.35158e+00  1.25639e+01  4.31845e+00
       H -4.54503e+00  1.43462e+01  6.69025e+00
       O  2.78573e-01 -9.93717e+00 -1.31734e+01
       H -1.18842e+00 -1.09659e+01 -1.36336e+01
       H  1.79493e+00 -1.09427e+01 -1.35002e+01
       O  4.52772e+00 -2.57751e+00 -1.31733e+01
       H  3.06068e+00 -3.60627e+00 -1.36334e+01
       H  6.04403e+00 -3.58305e+00 -1.35003e+01
       O  4.54334e+00 -1.25494e+01 -7.82465e-01
       H  4.54513e+00 -1.43463e+01 -2.27989e-01
       H  4.35168e+00 -1.25640e+01 -2.59974e+00
       O  2.94294e-01 -5.18980e+00 -7.82487e-01
       H  2.96032e-01 -6.98663e+00 -2.28053e-01
       H  1.02602e-01 -5.20427e+00 -2.59977e+00
       O  3.97042e+00 -1.21415e+01 -6.25517e+00
       H  2.45414e+00 -1.11359e+01 -6.58198e+00
       H  5.43747e+00 -1.11128e+01 -6.71526e+00
       O -2.78672e-01 -4.78194e+00 -6.25508e+00
       H -1.79498e+00 -3.77636e+00 -6.58199e+00
       H  1.18837e+00 -3.75320e+00 -6.71514e+00
       O -2.94511e-01 -9.52920e+00 -7.70081e+00
       H -1.02600e-01 -9.51466e+00 -9.51806e+00
       H -2.96005e-01 -7.73240e+00 -7.14625e+00
       O  3.95462e+00 -2.16972e+00 -7.70080e+00
       H  4.14654e+00 -2.15521e+00 -9.51804e+00
       H  3.95318e+00 -3.72879e-01 -7.14628e+00
       O  2.78541e-01 -9.93701e+00  6.63104e-01
       H -1.18842e+00 -1.09658e+01  2.03011e-01
       H  1.79493e+00 -1.09425e+01  3.36333e-01
       O  4.52773e+00 -2.57757e+00  6.63187e-01
       H  3.06068e+00 -3.60633e+00  2.03125e-01
       H  6.04402e+00 -3.58308e+00  3.36357e-01
       O  4.54332e+00 -1.25494e+01  1.30541e+01
       H  4.54518e+00 -1.43462e+01  1.36086e+01
       H  4.35169e+00 -1.25640e+01  1.12368e+01
       O  2.94281e-01 -5.18991e+00  1.30541e+01
       H  2.95995e-01 -6.98675e+00  1.36085e+01
       H  1.02570e-01 -5.20435e+00  1.12368e+01
       O  3.97044e+00 -1.21415e+01  7.58145e+00
       H  2.45413e+00 -1.11360e+01  7.25466e+00
       H  5.43745e+00 -1.11128e+01  7.12135e+00
       O -2.78601e-01 -4.78191e+00  7.58148e+00
       H -1.79495e+00 -3.77634e+00  7.25458e+00
       H  1.18839e+00 -3.75323e+00  7.12138e+00
       O -2.94501e-01 -9.52922e+00  6.13582e+00
       H -1.02637e-01 -9.51466e+00  4.31854e+00
       H -2.96013e-01 -7.73241e+00  6.69035e+00
       O  3.95462e+00 -2.16967e+00  6.13570e+00
       H  4.14656e+00 -2.15516e+00  4.31844e+00
       H  3.95315e+00 -3.72836e-01  6.69024e+00
       O  2.78636e-01  4.78206e+00 -1.31735e+01
       H -1.18832e+00  3.75329e+00 -1.36335e+01
       H  1.79499e+00  3.77651e+00 -1.35003e+01
       O  4.52773e+00  1.21415e+01 -1.31733e+01
       H  3.06066e+00  1.11127e+01 -1.36334e+01
       H  6.04403e+00  1.11360e+01 -1.35003e+01
       O  4.54332e+00  2.16970e+00 -7.82499e-01
       H  4.54510e+00  3.72872e-01 -2.27973e-01
       H  4.35161e+00  2.15513e+00 -2.59979e+00
       O  2.94188e-01  9.52923e+00 -7.82517e-01
       H  2.95976e-01  7.73239e+00 -2.28033e-01
       H  1.02486e-01  9.51470e+00 -2.59980e+00
       O  3.97041e+00  2.57752e+00 -6.25508e+00
       H  2.45414e+00  3.58307e+00 -6.58188e+00
       H  5.43747e+00  3.60626e+00 -6.71516e+00
       O -2.78677e-01  9.93714e+00 -6.25506e+00
       H -1.79497e+00  1.09427e+01 -6.58203e+00
       H  1.18838e+00  1.09659e+01 -6.71517e+00
       O -2.94451e-01  5.18990e+00 -7.70074e+00
       H -1.02475e-01  5.20442e+00 -9.51799e+00
       H -2.95971e-01  6.98671e+00 -7.14623e+00
       O  3.95453e+00  1.25494e+01 -7.70088e+00
       H  4.14650e+00  1.25638e+01 -9.51813e+00
       H  3.95314e+00  1.43462e+01 -7.14638e+00
       O  2.78666e-01  4.78190e+00  6.63181e-01
       H -1.18838e+00  3.75314e+00  2.03219e-01
       H  1.79499e+00  3.77637e+00  3.36305e-01
       O  4.52768e+00  1.21415e+01  6.63233e-01
       H  3.06065e+00  1.11127e+01  2.03130e-01
       H  6.04402e+00  1.11359e+01  3.36318e-01
       O  4.54337e+00  2.16963e+00  1.30541e+01
       H  4.54515e+00  3.72778e-01  1.36085e+01
       H  4.35165e+00  2.15511e+00  1.12368e+01
       O  2.94139e-01  9.52935e+00  1.30540e+01
       H  2.96028e-01  7.73252e+00  1.36085e+01
       H  1.02508e-01  9.51480e+00  1.12368e+01
       O  3.97044e+00  2.57752e+00  7.58146e+00
       H  2.45409e+00  3.58312e+00  7.25468e+00
       H  5.43745e+00  3.60627e+00  7.12136e+00
       O -2.78642e-01  9.93713e+00  7.58156e+00
       H -1.79498e+00  1.09426e+01  7.25459e+00
       H  1.18834e+00  1.09658e+01  7.12145e+00
       O -2.94462e-01  5.18993e+00  6.13575e+00
       H -1.02485e-01  5.20444e+00  4.31854e+00
       H -2.95928e-01  6.98677e+00  6.69031e+00
       O  3.95461e+00  1.25493e+01  6.13580e+00
       H  4.14651e+00  1.25638e+01  4.31854e+00
       H  3.95313e+00  1.43462e+01  6.69028e+00
192
# CELL(abcABC):   16.99620    29.43815    27.67315    90.00000    90.00000    90.00000  Step:          10  Bead:      19 positions{atomic_unit}  cell{atomic_unit}
       O -8.18592e+00 -9.89024e+00 -1.31303e+01
       H  7.27619e+00 -1.08661e+01 -1.36063e+01
       H -6.73182e+00 -1.08822e+01 -1.35422e+01
       O -3.95385e+00 -2.55920e+00 -1.31665e+01
       H -5.40668e+00 -3.58730e+00 -1.35434e+01
       H -2.45024e+00 -3.41556e+00 -1.35299e+01
       O -3.94427e+00 -1.25411e+01 -8.10625e-01
       H -4.12883e+00 -1.42913e+01 -4.51091e-01
       H -4.18187e+00 -1.27552e+01 -2.60670e+00
       O -8.20167e+00 -5.18561e+00 -8.04561e-01
       H -8.18402e+00 -6.96984e+00 -2.18840e-01
       H -8.54350e+00 -5.18213e+00 -2.55345e+00
       O -4.55469e+00 -1.21398e+01 -6.29512e+00
       H -6.06390e+00 -1.11322e+01 -6.56690e+00
       H -3.09674e+00 -1.11240e+01 -6.73238e+00
       O  8.21989e+00 -4.78839e+00 -6.23536e+00
       H  6.63025e+00 -3.78727e+00 -6.69625e+00
       H -7.42098e+00 -3.82884e+00 -6.81704e+00
       O  8.19015e+00 -9.56195e+00 -7.66529e+00
       H  8.38106e+00 -9.41872e+00 -9.52117e+00
       H  8.12612e+00 -7.83762e+00 -7.14968e+00
       O -4.49197e+00 -2.17453e+00 -7.67755e+00
       H -4.34866e+00 -2.17019e+00 -9.46500e+00
       H -4.58731e+00 -3.48550e-01 -7.15546e+00
       O -8.22253e+00 -9.94380e+00  6.42232e-01
       H  7.33306e+00 -1.09658e+01  2.28537e-01
       H -6.81827e+00 -1.10058e+01  3.27711e-01
       O -3.97825e+00 -2.54455e+00  6.78804e-01
       H -5.41282e+00 -3.56530e+00  3.65222e-01
       H -2.59211e+00 -3.67909e+00  3.15322e-01
       O -3.90907e+00 -1.25280e+01  1.30762e+01
       H -3.87649e+00 -1.43297e+01  1.35079e+01
       H -4.24281e+00 -1.24975e+01  1.13187e+01
       O -8.18367e+00 -5.20295e+00  1.30821e+01
       H -8.23866e+00 -6.87160e+00  1.34040e+01
       H -8.46009e+00 -5.12961e+00  1.13635e+01
       O -4.53184e+00 -1.21538e+01  7.59920e+00
       H -5.97526e+00 -1.11594e+01  7.31766e+00
       H -3.01476e+00 -1.09178e+01  7.18059e+00
       O  8.22265e+00 -4.79231e+00  7.53015e+00
       H  6.79608e+00 -3.81964e+00  7.18587e+00
       H -7.32437e+00 -3.86781e+00  7.19186e+00
       O  8.19227e+00 -9.53881e+00  6.10018e+00
       H  8.44173e+00 -9.43383e+00  4.37162e+00
       H  8.31366e+00 -7.77094e+00  6.64112e+00
       O -4.54111e+00 -2.13266e+00  6.14491e+00
       H -4.45499e+00 -2.27467e+00  4.26792e+00
       H -4.40378e+00 -3.65707e-01  6.83665e+00
       O -8.21987e+00  4.77655e+00 -1.32001e+01
       H  7.33723e+00  3.82826e+00 -1.36607e+01
       H -6.70437e+00  3.67105e+00 -1.34743e+01
       O -3.97452e+00  1.21289e+01 -1.31468e+01
       H -5.46261e+00  1.11986e+01 -1.37035e+01
       H -2.31876e+00  1.11348e+01 -1.33754e+01
       O -3.97915e+00  2.18192e+00 -7.86469e-01
       H -4.00383e+00  4.43854e-01 -3.96402e-01
       H -4.21157e+00  2.20353e+00 -2.53548e+00
       O -8.18571e+00  9.57447e+00 -7.65368e-01
       H -8.32867e+00  7.80191e+00 -2.20632e-01
       H -8.25608e+00  9.42046e+00 -2.58023e+00
       O -4.55888e+00  2.58566e+00 -6.23504e+00
       H -6.17468e+00  3.65804e+00 -6.62309e+00
       H -2.98312e+00  3.62322e+00 -6.57011e+00
       O  8.21881e+00  9.93508e+00 -6.25297e+00
       H  6.68013e+00  1.08324e+01 -6.57046e+00
       H -7.23322e+00  1.11771e+01 -6.68423e+00
       O  8.18172e+00  5.15936e+00 -7.69352e+00
       H  8.44870e+00  5.26169e+00 -9.44801e+00
       H  8.15191e+00  7.11635e+00 -7.04248e+00
       O -4.56297e+00  1.25737e+01 -7.67123e+00
       H -4.47050e+00  1.25602e+01 -9.45341e+00
       H -4.51729e+00  1.43672e+01 -7.22689e+00
       O -8.20487e+00  4.73643e+00  6.39734e-01
       H  7.40603e+00  3.60927e+00  2.42329e-01
       H -6.77930e+00  3.86618e+00  4.70063e-01
       O -3.99642e+00  1.21432e+01  6.43643e-01
       H -5.54413e+00  1.10145e+01  2.34463e-01
       H -2.50715e+00  1.11404e+01  3.15632e-01
       O -3.98841e+00  2.18727e+00  1.30899e+01
       H -4.09478e+00  3.90224e-01  1.34761e+01
       H -4.06868e+00  2.13224e+00  1.13011e+01
       O -8.19484e+00  9.49028e+00  1.30662e+01
       H -8.05851e+00  7.63323e+00  1.35249e+01
       H -8.36635e+00  9.46859e+00  1.12377e+01
       O -4.53074e+00  2.55976e+00  7.58230e+00
       H -5.91286e+00  3.64326e+00  7.23745e+00
       H -3.04952e+00  3.45993e+00  6.97878e+00
       O  8.20144e+00  9.94415e+00  7.60298e+00
       H  6.61915e+00  1.09956e+01  7.16363e+00
       H -7.45960e+00  1.09973e+01  7.19190e+00
       O  8.24960e+00  5.14519e+00  6.15922e+00
       H  8.45107e+00  5.22684e+00  4.36225e+00
       H  8.11010e+00  6.96507e+00  6.64362e+00
       O -4.54029e+00  1.25505e+01  6.09887e+00
       H -4.50916e+00  1.27122e+01  4.15235e+00
       H -4.47116e+00  1.43031e+01  6.79777e+00
       O  2.74120e-01 -9.94594e+00 -1.31564e+01
       H -1.27400e+00 -1.10107e+01 -1.36630e+01
       H  1.83101e+00 -1.09272e+01 -1.34741e+01
       O  4.56117e+00 -2.60415e+00 -1.31588e+01
       H  3.22627e+00 -3.89072e+00 -1.37637e+01
       H  5.88812e+00 -3.61801e+00 -1.35553e+01
       O  4.53785e+00 -1.25285e+01 -8.17056e-01
       H  4.57813e+00 -1.43952e+01 -4.49860e-01
       H  4.46659e+00 -1.26866e+01 -2.48945e+00
       O  2.93481e-01 -5.20684e+00 -7.78264e-01
       H  3.04356e-01 -6.99361e+00 -3.27825e-01
       H  2.43216e-01 -5.12495e+00 -2.69643e+00
       O  3.95618e+00 -1.21924e+01 -6.18478e+00
       H  2.50102e+00 -1.12021e+01 -6.50745e+00
       H  5.36722e+00 -1.11167e+01 -6.54117e+00
       O -2.88473e-01 -4.76038e+00 -6.26083e+00
       H -1.84832e+00 -3.74862e+00 -6.55292e+00
       H  1.22021e+00 -3.63609e+00 -6.81340e+00
       O -3.30125e-01 -9.54896e+00 -7.71009e+00
       H -1.81172e-01 -9.47371e+00 -9.51630e+00
       H -3.29750e-01 -7.75254e+00 -7.04392e+00
       O  3.92528e+00 -2.18868e+00 -7.68828e+00
       H  4.19614e+00 -2.26451e+00 -9.53912e+00
       H  3.90874e+00 -3.53583e-01 -7.10047e+00
       O  2.49240e-01 -9.92930e+00  6.50750e-01
       H -1.10300e+00 -1.11089e+01  1.12003e-01
       H  1.77700e+00 -1.08035e+01  4.48726e-01
       O  4.48910e+00 -2.58120e+00  6.52370e-01
       H  3.01608e+00 -3.68805e+00  1.65679e-01
       H  6.18789e+00 -3.62385e+00  1.89720e-01
       O  4.53459e+00 -1.25282e+01  1.30304e+01
       H  4.53618e+00 -1.45180e+01  1.35198e+01
       H  4.48706e+00 -1.25601e+01  1.12775e+01
       O  2.34273e-01 -5.20064e+00  1.30197e+01
       H  3.70798e-01 -7.14030e+00  1.37408e+01
       H  2.27788e-01 -5.25432e+00  1.10321e+01
       O  3.90915e+00 -1.21257e+01  7.60274e+00
       H  2.45452e+00 -1.11493e+01  7.37136e+00
       H  5.42150e+00 -1.11953e+01  6.99368e+00
       O -2.42289e-01 -4.81001e+00  7.59136e+00
       H -1.78746e+00 -3.92383e+00  7.33019e+00
       H  1.08208e+00 -3.88043e+00  7.14596e+00
       O -3.11034e-01 -9.50170e+00  6.15025e+00
       H -1.27656e-01 -9.55364e+00  4.18923e+00
       H -2.55151e-01 -7.79670e+00  6.74337e+00
       O  3.94180e+00 -2.20833e+00  6.10354e+00
       H  4.15372e+00 -2.29358e+00  4.41465e+00
       H  3.92017e+00 -3.96995e-01  6.56418e+00
       O  2.80214e-01  4.79163e+00 -1.31535e+01
       H -9.71447e-01  3.84907e+00 -1.36613e+01
       H  1.78438e+00  3.84446e+00 -1.36211e+01
       O  4.50165e+00  1.21429e+01 -1.31863e+01
       H  3.22627e+00  1.10343e+01 -1.36025e+01
       H  6.07615e+00  1.11351e+01 -1.35015e+01
       O  4.51595e+00  2.14374e+00 -7.80050e-01
       H  4.68788e+00  3.79379e-01 -1.40778e-01
       H  4.27931e+00  2.06590e+00 -2.51938e+00
       O  2.52998e-01  9.49998e+00 -7.72286e-01
       H  1.92123e-01  7.57471e+00 -8.72708e-02
       H  9.49633e-02  9.35734e+00 -2.57690e+00
       O  3.94251e+00  2.57353e+00 -6.24344e+00
       H  2.39090e+00  3.50876e+00 -6.75941e+00
       H  5.43684e+00  3.51658e+00 -6.77737e+00
       O -2.45315e-01  9.88988e+00 -6.27726e+00
       H -1.85980e+00  1.08587e+01 -6.61759e+00
       H  1.30353e+00  1.10741e+01 -6.73929e+00
       O -3.10343e-01  5.17256e+00 -7.68719e+00
       H  1.02578e-03  5.12418e+00 -9.63259e+00
       H -3.39939e-01  6.82171e+00 -7.22224e+00
       O  3.94597e+00  1.25274e+01 -7.72066e+00
       H  4.18569e+00  1.25056e+01 -9.46639e+00
       H  3.98830e+00  1.42306e+01 -6.94616e+00
       O  2.48704e-01  4.74231e+00  6.84331e-01
       H -1.05533e+00  3.74104e+00  1.55121e-01
       H  1.70028e+00  3.82629e+00  3.63971e-01
       O  4.54584e+00  1.21472e+01  6.91526e-01
       H  3.07438e+00  1.11263e+01  2.19776e-01
       H  5.96626e+00  1.10880e+01  3.42950e-01
       O  4.57116e+00  2.19798e+00  1.30196e+01
       H  4.50646e+00  3.69540e-01  1.37318e+01
       H  4.34479e+00  2.08217e+00  1.13261e+01
       O  2.45282e-01  9.55019e+00  1.30413e+01
       H  2.45451e-01  7.60953e+00  1.35220e+01
       H  4.69865e-02  9.46820e+00  1.13314e+01
       O  3.91247e+00  2.57004e+00  7.57110e+00
       H  2.31223e+00  3.43286e+00  7.32464e+00
       H  5.56782e+00  3.56949e+00  7.25825e+00
       O -3.24878e-01  9.94115e+00  7.57458e+00
       H -1.68642e+00  1.10295e+01  7.29731e+00
       H  1.25728e+00  1.10517e+01  7.12032e+00
       O -3.01991e-01  5.20270e+00  6.08637e+00
       H -2.16268e-01  5.28504e+00  4.36603e+00
       H -2.45827e-01  6.99013e+00  6.73521e+00
       O  3.96910e+00  1.25275e+01  6.13064e+00
       H  4.26799e+00  1.25727e+01  4.28589e+00
       H  3.81193e+00  1.43197e+01  6.78355e+00
192
# CELL(abcABC):   16.99620    29.43815    27.67315    90.00000    90.00000    90.00000  Step:          20  Bead:      19 positions{atomic_unit}  cell{atomic_unit}
       O -8.14744e+00 -9.88181e+00 -1.31345e+01
       H  7.13484e+00 -1.08293e+01 -1.36332e+01
       H -6.43644e+00 -1.10777e+01 -1.36398e+01
       O -3.95724e+00 -2.55115e+00 -1.31910e+01
       H -5.36094e+00 -3.51775e+00 -1.34648e+01
       H -2.45563e+00 -3.27515e+00 -1.34363e+01
       O -3.95741e+00 -1.25169e+01 -8.44601e-01
       H -4.16794e+00 -1.43540e+01 -3.97170e-01
       H -4.30350e+00 -1.26448e+01 -2.57850e+00
       O -8.20568e+00 -5.17305e+00 -8.07081e-01
       H -8.16880e+00 -6.95439e+00 -2.40395e-01
       H -8.66775e+00 -5.29359e+00 -2.49233e+00
       O -4.54679e+00 -1.21775e+01 -6.28993e+00
       H -6.00753e+00 -1.11014e+01 -6.65561e+00
       H -2.85229e+00 -1.10552e+01 -6.75605e+00
       O  8.20788e+00 -4.78922e+00 -6.24499e+00
       H  6.78682e+00 -3.67300e+00 -6.74314e+00
       H -7.45453e+00 -4.00725e+00 -6.83189e+00
       O  8.21329e+00 -9.57683e+00 -7.65235e+00
       H  8.27564e+00 -9.43896e+00 -9.64096e+00
       H  8.02075e+00 -7.88043e+00 -7.02365e+00
       O -4.46876e+00 -2.14561e+00 -7.67077e+00
       H -4.34124e+00 -2.12382e+00 -9.40005e+00
       H -4.77267e+00 -4.10242e-01 -7.00330e+00
       O -8.22726e+00 -9.94317e+00  6.49534e-01
       H  7.46822e+00 -1.09179e+01  1.75412e-01
       H -6.84604e+00 -1.09881e+01  2.94878e-01
       O -3.95837e+00 -2.56039e+00  7.05406e-01
       H -5.30111e+00 -3.55896e+00  2.92544e-01
       H -2.74929e+00 -3.68272e+00  3.16022e-01
       O -3.88893e+00 -1.25363e+01  1.30850e+01
       H -3.87458e+00 -1.44074e+01  1.35357e+01
       H -4.26383e+00 -1.25396e+01  1.14003e+01
       O -8.22562e+00 -5.19083e+00  1.31013e+01
       H -8.15366e+00 -6.93073e+00  1.34213e+01
       H -8.51718e+00 -4.98816e+00  1.12792e+01
       O -4.51694e+00 -1.21689e+01  7.55922e+00
       H -5.98872e+00 -1.11244e+01  7.27381e+00
       H -3.09686e+00 -1.08327e+01  7.17082e+00
       O  8.18577e+00 -4.80740e+00  7.55404e+00
       H  6.79178e+00 -3.94763e+00  7.05846e+00
       H -7.31171e+00 -3.81531e+00  7.22745e+00
       O  8.20823e+00 -9.55133e+00  6.12573e+00
       H  8.43959e+00 -9.18417e+00  4.36613e+00
       H  8.31469e+00 -7.73797e+00  6.80188e+00
       O -4.52910e+00 -2.12186e+00  6.09994e+00
       H -4.35435e+00 -2.28949e+00  4.22751e+00
       H -4.51797e+00 -3.61131e-01  6.76305e+00
       O -8.23886e+00  4.74993e+00 -1.32436e+01
       H  7.42009e+00  3.77714e+00 -1.37035e+01
       H -6.67322e+00  3.63538e+00 -1.36175e+01
       O -3.96312e+00  1.21017e+01 -1.31867e+01
       H -5.47068e+00  1.11830e+01 -1.35659e+01
       H -2.33601e+00  1.11752e+01 -1.34820e+01
       O -4.01227e+00  2.17256e+00 -8.29290e-01
       H -4.05485e+00  4.61997e-01 -4.19111e-01
       H -4.05550e+00  2.28234e+00 -2.61066e+00
       O -8.20149e+00  9.56061e+00 -7.39679e-01
       H -8.28933e+00  7.67895e+00 -2.03715e-01
       H -8.17348e+00  9.57006e+00 -2.69878e+00
       O -4.55753e+00  2.56119e+00 -6.21144e+00
       H -5.99172e+00  3.53823e+00 -6.59670e+00
       H -3.00035e+00  3.77091e+00 -6.47778e+00
       O  8.22705e+00  9.93092e+00 -6.24319e+00
       H  6.61472e+00  1.08974e+01 -6.49966e+00
       H -7.29896e+00  1.11427e+01 -6.58022e+00
       O  8.15305e+00  5.14897e+00 -7.68162e+00
       H  8.43771e+00  5.25750e+00 -9.45523e+00
       H  8.15599e+00  7.22861e+00 -7.09182e+00
       O -4.58371e+00  1.25513e+01 -7.68597e+00
       H -4.54531e+00  1.26709e+01 -9.32629e+00
       H -4.53166e+00  1.45728e+01 -7.21913e+00
       O -8.22794e+00  4.71964e+00  6.18665e-01
       H  7.45966e+00  3.69703e+00  9.47405e-02
       H -6.79951e+00  3.82345e+00  5.16643e-01
       O -4.00314e+00  1.21904e+01  6.31147e-01
       H -5.57411e+00  1.10342e+01  2.27417e-01
       H -2.40413e+00  1.12582e+01  2.84239e-01
       O -3.95513e+00  2.20310e+00  1.30925e+01
       H -4.05012e+00  5.50157e-01  1.34715e+01
       H -3.87252e+00  2.09928e+00  1.11705e+01
       O -8.20189e+00  9.46630e+00  1.30804e+01
       H -8.16834e+00  7.71062e+00  1.34952e+01
       H -8.43569e+00  9.47249e+00  1.12482e+01
       O -4.50920e+00  2.51130e+00  7.56793e+00
       H -6.06631e+00  3.68550e+00  7.27343e+00
       H -3.17783e+00  3.47507e+00  6.70176e+00
       O  8.15691e+00  9.99014e+00  7.58922e+00
       H  6.76631e+00  1.08621e+01  7.07284e+00
       H -7.44544e+00  1.09652e+01  7.22357e+00
       O  8.28561e+00  5.14612e+00  6.15762e+00
       H  8.45549e+00  5.36162e+00  4.39872e+00
       H  8.09991e+00  6.91415e+00  6.64632e+00
       O -4.53244e+00  1.25662e+01  6.07924e+00
       H -4.49664e+00  1.28098e+01  4.15264e+00
       H -4.36631e+00  1.42180e+01  6.76631e+00
       O  2.97602e-01 -9.94815e+00 -1.31581e+01
       H -1.31608e+00 -1.11389e+01 -1.36676e+01
       H  1.88053e+00 -1.10160e+01 -1.32939e+01
       O  4.59658e+00 -2.61591e+00 -1.31524e+01
       H  3.17595e+00 -3.97238e+00 -1.38284e+01
       H  5.60903e+00 -3.64290e+00 -1.36213e+01
       O  4.51947e+00 -1.25290e+01 -7.97439e-01
       H  4.57350e+00 -1.43875e+01 -3.62425e-01
       H  4.36189e+00 -1.26249e+01 -2.68582e+00
       O  2.92167e-01 -5.18302e+00 -8.04297e-01
       H  2.28459e-01 -7.29678e+00 -3.69293e-01
       H  3.06922e-01 -5.12943e+00 -2.77035e+00
       O  3.96766e+00 -1.21971e+01 -6.18483e+00
       H  2.44178e+00 -1.11178e+01 -6.54000e+00
       H  5.52824e+00 -1.11712e+01 -6.65885e+00
       O -3.04152e-01 -4.75613e+00 -6.27184e+00
       H -1.80734e+00 -3.82568e+00 -6.41386e+00
       H  1.14179e+00 -3.63903e+00 -6.80463e+00
       O -3.46436e-01 -9.57889e+00 -7.68628e+00
       H -2.51101e-01 -9.34640e+00 -9.56807e+00
       H -1.57475e-01 -7.75428e+00 -6.99320e+00
       O  3.96593e+00 -2.17782e+00 -7.73717e+00
       H  4.12418e+00 -2.16701e+00 -9.58613e+00
       H  3.96433e+00 -3.02481e-01 -7.03672e+00
       O  2.30436e-01 -9.92562e+00  6.59917e-01
       H -8.99208e-01 -1.10908e+01  6.02415e-02
       H  1.75448e+00 -1.09170e+01  4.52050e-01
       O  4.48763e+00 -2.58238e+00  6.32114e-01
       H  3.10171e+00 -3.71432e+00  3.16657e-01
       H  6.30850e+00 -3.58180e+00  1.59121e-01
       O  4.52139e+00 -1.25268e+01  1.30123e+01
       H  4.68150e+00 -1.45546e+01  1.36098e+01
       H  4.54782e+00 -1.26073e+01  1.14121e+01
       O  2.41278e-01 -5.18191e+00  1.30433e+01
       H  2.25788e-01 -7.24652e+00  1.37650e+01
       H  3.08370e-01 -5.33914e+00  1.10495e+01
       O  3.86582e+00 -1.21327e+01  7.60676e+00
       H  2.37926e+00 -1.11300e+01  7.38921e+00
       H  5.47369e+00 -1.13356e+01  6.93528e+00
       O -2.49093e-01 -4.83206e+00  7.60685e+00
       H -1.74138e+00 -3.97479e+00  7.34322e+00
       H  1.16369e+00 -3.93285e+00  7.19581e+00
       O -3.39318e-01 -9.50855e+00  6.15668e+00
       H -1.54356e-01 -9.56074e+00  4.32982e+00
       H -2.48418e-01 -7.80942e+00  6.71314e+00
       O  3.95642e+00 -2.17933e+00  6.14495e+00
       H  4.27803e+00 -2.32958e+00  4.48736e+00
       H  3.82059e+00 -2.89842e-01  6.48746e+00
       O  3.00975e-01  4.84075e+00 -1.31163e+01
       H -9.44384e-01  3.82798e+00 -1.37499e+01
       H  1.80832e+00  3.75794e+00 -1.35971e+01
       O  4.49458e+00  1.21548e+01 -1.32180e+01
       H  3.10558e+00  1.09036e+01 -1.35095e+01
       H  6.17920e+00  1.11238e+01 -1.34130e+01
       O  4.52073e+00  2.14484e+00 -8.24683e-01
       H  4.73045e+00  4.24634e-01 -8.97807e-02
       H  4.22049e+00  2.18017e+00 -2.49642e+00
       O  2.69140e-01  9.46657e+00 -7.22443e-01
       H  3.01781e-01  7.69243e+00 -7.64443e-02
       H  3.97685e-02  9.33039e+00 -2.47657e+00
       O  3.94461e+00  2.56374e+00 -6.24515e+00
       H  2.53072e+00  3.46021e+00 -6.69402e+00
       H  5.54378e+00  3.55264e+00 -6.67478e+00
       O -2.79317e-01  9.88192e+00 -6.29003e+00
       H -1.95271e+00  1.07530e+01 -6.71097e+00
       H  1.29644e+00  1.10771e+01 -6.87778e+00
       O -3.04687e-01  5.13741e+00 -7.68058e+00
       H  6.19156e-03  5.05375e+00 -9.73195e+00
       H -2.34721e-01  6.86575e+00 -7.34166e+00
       O  3.96079e+00  1.25649e+01 -7.76960e+00
       H  4.45447e+00  1.23701e+01 -9.52703e+00
       H  3.96565e+00  1.41424e+01 -6.88318e+00
       O  2.54687e-01  4.74727e+00  7.18566e-01
       H -8.72028e-01  3.69094e+00  1.12307e-01
       H  1.64494e+00  3.79063e+00  5.55476e-01
       O  4.51694e+00  1.21680e+01  6.85662e-01
       H  2.88191e+00  1.10666e+01  2.31895e-01
       H  5.89508e+00  1.10452e+01  2.74134e-01
       O  4.53920e+00  2.19104e+00  1.30064e+01
       H  4.55363e+00  6.91328e-02  1.35838e+01
       H  4.33814e+00  2.12344e+00  1.12564e+01
       O  2.63963e-01  9.56824e+00  1.30335e+01
       H  2.70763e-01  7.51821e+00  1.36171e+01
       H  7.13460e-02  9.46086e+00  1.14231e+01
       O  3.91833e+00  2.53880e+00  7.59201e+00
       H  2.36251e+00  3.43787e+00  7.33204e+00
       H  5.57359e+00  3.61890e+00  7.25625e+00
       O -3.23514e-01  9.94971e+00  7.57428e+00
       H -1.57710e+00  1.10615e+01  7.33070e+00
       H  1.16629e+00  1.11161e+01  7.27019e+00
       O -2.71640e-01  5.23325e+00  6.08163e+00
       H -4.12420e-02  5.07743e+00  4.39837e+00
       H -3.04225e-01  7.02197e+00  6.73752e+00
       O  3.94985e+00  1.25162e+01  6.12323e+00
       H  4.13863e+00  1.25803e+01  4.45462e+00
       H  4.04887e+00  1.43402e+01  6.88648e+00
192
# CELL(abcABC):   16.99620    29.43815    27.67315    90.00000    90.00000    90.00000  Step:          30  Bead:      19 positions{atomic_unit}  cell{atomic_unit}
       O -8.19072e+00 -9.92612e+00 -1.31361e+01
       H  7.06880e+00 -1.09320e+01 -1.36496e+01
       H -6.36022e+00 -1.11894e+01 -1.36655e+01
       O -3.94210e+00 -2.53299e+00 -1.31737e+01
       H -5.38633e+00 -3.66219e+00 -1.34956e+01
       H -2.59193e+00 -3.19612e+00 -1.33998e+01
       O -3.95463e+00 -1.25139e+01 -8.58546e-01
       H -4.21625e+00 -1.42433e+01 -3.44139e-01
       H -4.32770e+00 -1.25485e+01 -2.76006e+00
       O -8.19397e+00 -5.18545e+00 -7.71868e-01
       H -8.16672e+00 -6.87851e+00 -2.14212e-01
       H -8.68187e+00 -5.19212e+00 -2.36291e+00
       O -4.55397e+00 -1.22124e+01 -6.27453e+00
       H -6.03941e+00 -1.10901e+01 -6.85955e+00
       H -2.72194e+00 -1.09181e+01 -6.92890e+00
       O  8.20613e+00 -4.79647e+00 -6.26260e+00
       H  6.80160e+00 -3.68754e+00 -6.58986e+00
       H -7.29115e+00 -3.91520e+00 -6.86625e+00
       O  8.24007e+00 -9.59944e+00 -7.66357e+00
       H  8.37114e+00 -9.48477e+00 -9.64016e+00
       H  8.06230e+00 -7.84742e+00 -7.03968e+00
       O -4.49062e+00 -2.12425e+00 -7.70503e+00
       H -4.25411e+00 -2.24194e+00 -9.53440e+00
       H -4.84697e+00 -6.11613e-01 -7.04631e+00
       O -8.20534e+00 -9.91742e+00  6.25505e-01
       H  7.41492e+00 -1.09163e+01  1.28600e-01
       H -6.83727e+00 -1.10304e+01  4.02967e-01
       O -3.91889e+00 -2.58194e+00  7.41792e-01
       H -5.31014e+00 -3.49846e+00  1.37066e-01
       H -2.80208e+00 -3.71256e+00  2.32178e-01
       O -3.91215e+00 -1.25145e+01  1.31042e+01
       H -3.95794e+00 -1.46250e+01  1.37242e+01
       H -4.29681e+00 -1.25719e+01  1.15451e+01
       O -8.16531e+00 -5.19831e+00  1.30848e+01
       H -8.05908e+00 -7.04488e+00  1.34899e+01