192
# CELL(abcABC):   16.99620    29.43815    27.67315    90.00000    90.00000    90.00000  Step:           0  Bead:      25 positions{atomic_unit}  cell{atomic_unit}
       O -8.22215e+00 -9.94239e+00 -1.31733e+01
       H  7.30664e+00 -1.09711e+01 -1.36322e+01
       H -6.70615e+00 -1.09482e+01 -1.35006e+01
       O -3.97298e+00 -2.58228e+00 -1.31734e+01
       H -5.44033e+00 -3.61131e+00 -1.36317e+01
       H -2.45697e+00 -3.58820e+00 -1.35005e+01
       O -3.95756e+00 -1.25543e+01 -7.82386e-01
       H -3.95604e+00 -1.43515e+01 -2.29143e-01
       H -4.14759e+00 -1.25671e+01 -2.59983e+00
       O -8.20667e+00 -5.19495e+00 -7.82227e-01
       H -8.20527e+00 -6.99211e+00 -2.28860e-01
       H -8.39642e+00 -5.20788e+00 -2.59970e+00
       O -4.52495e+00 -1.21366e+01 -6.25523e+00
       H -6.04104e+00 -1.11308e+01 -6.58223e+00
       H -3.05766e+00 -1.11077e+01 -6.71383e+00
       O  8.22247e+00 -4.77716e+00 -6.25561e+00
       H  6.70639e+00 -3.77128e+00 -6.58235e+00
       H -7.30644e+00 -3.74813e+00 -6.71411e+00
       O  8.20650e+00 -9.52435e+00 -7.70064e+00
       H  8.39647e+00 -9.51190e+00 -9.51809e+00
       H  8.20529e+00 -7.72704e+00 -7.14768e+00
       O -4.54027e+00 -2.16431e+00 -7.70075e+00
       H -4.35006e+00 -2.15153e+00 -9.51816e+00
       H -4.54166e+00 -3.67089e-01 -7.14744e+00
       O -8.22211e+00 -9.94193e+00  6.63469e-01
       H  7.30672e+00 -1.09707e+01  2.04633e-01
       H -6.70609e+00 -1.09478e+01  3.36365e-01
       O -3.97290e+00 -2.58257e+00  6.63081e-01
       H -5.44032e+00 -3.61148e+00  2.04655e-01
       H -2.45688e+00 -3.58848e+00  3.35971e-01
       O -3.95760e+00 -1.25545e+01  1.30538e+01
       H -3.95614e+00 -1.43517e+01  1.36071e+01
       H -4.14757e+00 -1.25673e+01  1.12363e+01
       O -8.20656e+00 -5.19529e+00  1.30545e+01
       H -8.20517e+00 -6.99250e+00  1.36078e+01
       H -8.39634e+00 -5.20824e+00  1.12370e+01
       O -4.52490e+00 -1.21367e+01  7.58138e+00
       H -6.04102e+00 -1.11309e+01  7.25435e+00
       H -3.05757e+00 -1.11078e+01  7.12272e+00
       O  8.22232e+00 -4.77760e+00  7.58065e+00
       H  6.70627e+00 -3.77169e+00  7.25392e+00
       H -7.30657e+00 -3.74862e+00  7.12211e+00
       O  8.20656e+00 -9.52478e+00  6.13597e+00
       H  8.39651e+00 -9.51229e+00  4.31849e+00
       H  8.20527e+00 -7.72747e+00  6.68889e+00
       O -4.54025e+00 -2.16471e+00  6.13560e+00
       H -4.34999e+00 -2.15183e+00  4.31818e+00
       H -4.54168e+00 -3.67533e-01  6.68897e+00
       O -8.22212e+00  4.77724e+00 -1.31733e+01
       H  7.30671e+00  3.74833e+00 -1.36320e+01
       H -6.70607e+00  3.77135e+00 -1.35002e+01
       O -3.97288e+00  1.21369e+01 -1.31734e+01
       H -5.44030e+00  1.11079e+01 -1.36317e+01
       H -2.45689e+00  1.11310e+01 -1.35006e+01
       O -3.95757e+00  2.16435e+00 -7.82368e-01
       H -3.95607e+00  3.67109e-01 -2.29207e-01
       H -4.14756e+00  2.15166e+00 -2.59983e+00
       O -8.20667e+00  9.52420e+00 -7.81868e-01
       H -8.20527e+00  7.72699e+00 -2.28645e-01
       H -8.39652e+00  9.51128e+00 -2.59932e+00
       O -4.52494e+00  2.58246e+00 -6.25501e+00
       H -6.04100e+00  3.58821e+00 -6.58223e+00
       H -3.05758e+00  3.61139e+00 -6.71360e+00
       O  8.22236e+00  9.94146e+00 -6.25587e+00
       H  6.70631e+00  1.09474e+01 -6.58279e+00
       H -7.30653e+00  1.09705e+01 -6.71435e+00
       O  8.20665e+00  5.19438e+00 -7.70097e+00
       H  8.39659e+00  5.20693e+00 -9.51844e+00
       H  8.20533e+00  6.99167e+00 -7.14797e+00
       O -4.54026e+00  1.25545e+01 -7.70081e+00
       H -4.34992e+00  1.25674e+01 -9.51823e+00
       H -4.54169e+00  1.43517e+01 -7.14749e+00
       O -8.22210e+00  4.77691e+00  6.62996e-01
       H  7.30665e+00  3.74808e+00  2.04431e-01
       H -6.70613e+00  3.77091e+00  3.36028e-01
       O -3.97279e+00  1.21369e+01  6.63306e-01
       H -5.44019e+00  1.11079e+01  2.05006e-01
       H -2.45681e+00  1.11309e+01  3.36133e-01
       O -3.95757e+00  2.16479e+00  1.30545e+01
       H -3.95616e+00  3.67575e-01  1.36077e+01
       H -4.14769e+00  2.15200e+00  1.12370e+01
       O -8.20659e+00  9.52434e+00  1.30546e+01
       H -8.20522e+00  7.72713e+00  1.36079e+01
       H -8.39644e+00  9.51145e+00  1.12371e+01
       O -4.52499e+00  2.58228e+00  7.58148e+00
       H -6.04100e+00  3.58814e+00  7.25437e+00
       H -3.05766e+00  3.61126e+00  7.12297e+00
       O  8.22229e+00  9.94203e+00  7.58108e+00
       H  6.70627e+00  1.09480e+01  7.25419e+00
       H -7.30655e+00  1.09710e+01  7.12260e+00
       O  8.20668e+00  5.19493e+00  6.13567e+00
       H  8.39670e+00  5.20749e+00  4.31823e+00
       H  8.20535e+00  6.99219e+00  6.68874e+00
       O -4.54018e+00  1.25546e+01  6.13603e+00
       H -4.34989e+00  1.25674e+01  4.31861e+00
       H -4.54161e+00  1.43518e+01  6.68925e+00
       O  2.75877e-01 -9.94198e+00 -1.31737e+01
       H -1.19147e+00 -1.09709e+01 -1.36323e+01
       H  1.79191e+00 -1.09478e+01 -1.35009e+01
       O  4.52479e+00 -2.58220e+00 -1.31736e+01
       H  3.05750e+00 -3.61120e+00 -1.36322e+01
       H  6.04084e+00 -3.58815e+00 -1.35003e+01
       O  4.54038e+00 -1.25538e+01 -7.82378e-01
       H  4.54166e+00 -1.43510e+01 -2.29173e-01
       H  4.35042e+00 -1.25666e+01 -2.59983e+00
       O  2.91382e-01 -5.19489e+00 -7.82498e-01
       H  2.92775e-01 -6.99208e+00 -2.29179e-01
       H  1.01240e-01 -5.20770e+00 -2.59994e+00
       O  3.97307e+00 -1.21369e+01 -6.25482e+00
       H  2.45707e+00 -1.11310e+01 -6.58187e+00
       H  5.44043e+00 -1.11080e+01 -6.71350e+00
       O -2.76167e-01 -4.77714e+00 -6.25484e+00
       H -1.79215e+00 -3.77120e+00 -6.58193e+00
       H  1.19122e+00 -3.74822e+00 -6.71327e+00
       O -2.91294e-01 -9.52406e+00 -7.70061e+00
       H -1.01153e-01 -9.51128e+00 -9.51804e+00
       H -2.92737e-01 -7.72684e+00 -7.14734e+00
       O  3.95740e+00 -2.16468e+00 -7.70029e+00
       H  4.14711e+00 -2.15178e+00 -9.51779e+00
       H  3.95613e+00 -3.67477e-01 -7.14700e+00
       O  2.75838e-01 -9.94166e+00  6.63265e-01
       H -1.19143e+00 -1.09706e+01  2.04532e-01
       H  1.79197e+00 -1.09474e+01  3.36068e-01
       O  4.52471e+00 -2.58218e+00  6.62891e-01
       H  3.05743e+00 -3.61117e+00  2.04240e-01
       H  6.04080e+00 -3.58806e+00  3.36089e-01
       O  4.54037e+00 -1.25543e+01  1.30539e+01
       H  4.54173e+00 -1.43516e+01  1.36070e+01
       H  4.35050e+00 -1.25670e+01  1.12364e+01
       O  2.91297e-01 -5.19502e+00  1.30541e+01
       H  2.92732e-01 -6.99225e+00  1.36074e+01
       H  1.01206e-01 -5.20786e+00  1.12367e+01
       O  3.97310e+00 -1.21368e+01  7.58177e+00
       H  2.45707e+00 -1.11309e+01  7.25464e+00
       H  5.44051e+00 -1.11080e+01  7.12302e+00
       O -2.76100e-01 -4.77767e+00  7.58136e+00
       H -1.79210e+00 -3.77177e+00  7.25428e+00
       H  1.19125e+00 -3.74871e+00  7.12290e+00
       O -2.91340e-01 -9.52458e+00  6.13593e+00
       H -1.01282e-01 -9.51181e+00  4.31852e+00
       H -2.92762e-01 -7.72734e+00  6.68916e+00
       O  3.95728e+00 -2.16475e+00  6.13602e+00
       H  4.14704e+00 -2.15175e+00  4.31853e+00
       H  3.95603e+00 -3.67615e-01  6.68942e+00
       O  2.75872e-01  4.77775e+00 -1.31735e+01
       H -1.19145e+00  3.74868e+00 -1.36320e+01
       H  1.79192e+00  3.77189e+00 -1.35005e+01
       O  4.52473e+00  1.21369e+01 -1.31737e+01
       H  3.05744e+00  1.11080e+01 -1.36325e+01
       H  6.04082e+00  1.11311e+01 -1.35004e+01
       O  4.54033e+00  2.16480e+00 -7.82502e-01
       H  4.54166e+00  3.67553e-01 -2.29384e-01
       H  4.35052e+00  2.15214e+00 -2.60000e+00
       O  2.91442e-01  9.52423e+00 -7.82681e-01
       H  2.92837e-01  7.72701e+00 -2.29452e-01
       H  1.01299e-01  9.51146e+00 -2.60013e+00
       O  3.97319e+00  2.58230e+00 -6.25496e+00
       H  2.45717e+00  3.58819e+00 -6.58198e+00
       H  5.44056e+00  3.61109e+00 -6.71379e+00
       O -2.76125e-01  9.94167e+00 -6.25515e+00
       H -1.79212e+00  1.09476e+01 -6.58222e+00
       H  1.19126e+00  1.09706e+01 -6.71377e+00
       O -2.91369e-01  5.19475e+00 -7.70046e+00
       H -1.01380e-01  5.20765e+00 -9.51793e+00
       H -2.92793e-01  6.99195e+00 -7.14718e+00
       O  3.95737e+00  1.25543e+01 -7.70076e+00
       H  4.14703e+00  1.25673e+01 -9.51824e+00
       H  3.95606e+00  1.43514e+01 -7.14726e+00
       O  2.75794e-01  4.77734e+00  6.62959e-01
       H -1.19152e+00  3.74832e+00  2.04499e-01
       H  1.79186e+00  3.77147e+00  3.35887e-01
       O  4.52464e+00  1.21373e+01  6.62988e-01
       H  3.05745e+00  1.11082e+01  2.04218e-01
       H  6.04076e+00  1.11314e+01  3.36450e-01
       O  4.54041e+00  2.16499e+00  1.30543e+01
       H  4.54178e+00  3.67749e-01  1.36074e+01
       H  4.35054e+00  2.15228e+00  1.12368e+01
       O  2.91308e-01  9.52457e+00  1.30538e+01
       H  2.92715e-01  7.72735e+00  1.36071e+01
       H  1.01225e-01  9.51181e+00  1.12363e+01
       O  3.97315e+00  2.58235e+00  7.58152e+00
       H  2.45713e+00  3.58829e+00  7.25455e+00
       H  5.44048e+00  3.61122e+00  7.12279e+00
       O -2.76008e-01  9.94202e+00  7.58171e+00
       H -1.79205e+00  1.09479e+01  7.25468e+00
       H  1.19134e+00  1.09710e+01  7.12317e+00
       O -2.91416e-01  5.19510e+00  6.13606e+00
       H -1.01371e-01  5.20795e+00  4.31863e+00
       H -2.92777e-01  6.99228e+00  6.68938e+00
       O  3.95729e+00  1.25546e+01  6.13612e+00
       H  4.14688e+00  1.25676e+01  4.31864e+00
       H  3.95603e+00  1.43518e+01  6.68952e+00
192
# CELL(abcABC):   16.99620    29.43815    27.67315    90.00000    90.00000    90.00000  Step:          10  Bead:      25 positions{atomic_unit}  cell{atomic_unit}
       O -8.27195e+00 -9.96503e+00 -1.30896e+01
       H  7.24648e+00 -1.08463e+01 -1.32815e+01
       H -6.65574e+00 -1.05537e+01 -1.35273e+01
       O -3.89732e+00 -2.55816e+00 -1.31385e+01
       H -5.40144e+00 -3.84822e+00 -1.33976e+01
       H -2.39013e+00 -3.53080e+00 -1.32748e+01
       O -4.00259e+00 -1.24943e+01 -8.76454e-01
       H -3.97250e+00 -1.41903e+01 -2.80606e-01
       H -4.30260e+00 -1.25435e+01 -2.43009e+00
       O -8.28777e+00 -5.26445e+00 -8.07991e-01
       H -8.13419e+00 -7.05626e+00 -2.04935e-01
       H -8.38089e+00 -5.12988e+00 -2.47737e+00
       O -4.53961e+00 -1.21876e+01 -6.21356e+00
       H -5.82395e+00 -1.11826e+01 -6.55381e+00
       H -2.94433e+00 -1.13367e+01 -6.73234e+00
       O  8.29818e+00 -4.78927e+00 -6.25247e+00
       H  6.80869e+00 -3.86789e+00 -6.38211e+00
       H -7.28645e+00 -3.80638e+00 -6.82251e+00
       O  8.25220e+00 -9.44931e+00 -7.71262e+00
       H  8.42254e+00 -9.57025e+00 -9.55365e+00
       H  7.98576e+00 -7.68573e+00 -7.18082e+00
       O -4.52612e+00 -2.18203e+00 -7.67913e+00
       H -4.21183e+00 -2.19471e+00 -9.33948e+00
       H -4.63594e+00 -5.23054e-01 -6.91145e+00
       O -8.21876e+00 -9.89151e+00  6.75643e-01
       H  7.29380e+00 -1.10658e+01  5.24187e-02
       H -6.76948e+00 -1.08338e+01  2.84643e-01
       O -3.93248e+00 -2.59824e+00  7.51748e-01
       H -5.27955e+00 -3.57697e+00  3.38052e-01
       H -2.53327e+00 -3.61268e+00  3.77434e-01
       O -4.02849e+00 -1.25710e+01  1.30376e+01
       H -4.07765e+00 -1.42738e+01  1.38525e+01
       H -4.16743e+00 -1.25697e+01  1.11474e+01
       O -8.16379e+00 -5.17678e+00  1.31096e+01
       H -8.10879e+00 -7.27185e+00  1.35349e+01
       H -8.44940e+00 -4.90791e+00  1.10780e+01
       O -4.53461e+00 -1.21612e+01  7.59348e+00
       H -6.29372e+00 -1.10789e+01  7.23480e+00
       H -3.20732e+00 -1.09975e+01  7.00742e+00
       O  8.23177e+00 -4.78237e+00  7.59242e+00
       H  6.69821e+00 -3.66137e+00  7.44332e+00
       H -7.10283e+00 -3.73346e+00  7.23601e+00
       O  8.21048e+00 -9.53791e+00  6.20594e+00
       H  8.39415e+00 -9.58076e+00  4.42123e+00
       H  8.43419e+00 -7.90301e+00  6.69692e+00
       O -4.57004e+00 -2.17306e+00  6.18017e+00
       H -4.49610e+00 -2.15219e+00  4.43223e+00
       H -4.74303e+00 -3.71444e-01  6.77392e+00
       O -8.21275e+00  4.75143e+00 -1.31899e+01
       H  7.22529e+00  3.78749e+00 -1.35007e+01
       H -6.79224e+00  3.68276e+00 -1.35481e+01
       O -4.00761e+00  1.21347e+01 -1.31842e+01
       H -5.38775e+00  1.08546e+01 -1.34742e+01
       H -2.33881e+00  1.11308e+01 -1.33837e+01
       O -3.93566e+00  2.14067e+00 -8.58834e-01
       H -4.23055e+00  4.74244e-01 -5.39237e-01
       H -3.99409e+00  2.16311e+00 -2.73971e+00
       O -8.22977e+00  9.50405e+00 -7.86586e-01
       H -7.93930e+00  7.80344e+00 -2.51882e-01
       H -8.48283e+00  9.59702e+00 -2.50575e+00
       O -4.53662e+00  2.66929e+00 -6.28401e+00
       H -5.96704e+00  3.56909e+00 -6.55696e+00
       H -3.11823e+00  3.74376e+00 -6.71544e+00
       O  8.14215e+00  9.89543e+00 -6.25472e+00
       H  6.52316e+00  1.08125e+01 -6.80965e+00
       H -7.41954e+00  1.08936e+01 -6.66374e+00
       O  8.22130e+00  5.24228e+00 -7.73734e+00
       H  8.69387e+00  5.12243e+00 -9.31961e+00
       H  8.19886e+00  7.04866e+00 -6.93089e+00
       O -4.59106e+00  1.25626e+01 -7.73757e+00
       H -4.26991e+00  1.26968e+01 -9.56793e+00
       H -4.70735e+00  1.43367e+01 -7.16048e+00
       O -8.18617e+00  4.74600e+00  6.68690e-01
       H  7.41087e+00  3.91888e+00  2.80558e-01
       H -6.55152e+00  3.71374e+00  2.72099e-01
       O -4.03398e+00  1.21392e+01  6.68921e-01
       H -5.57681e+00  1.12151e+01  3.28197e-01
       H -2.65411e+00  1.10174e+01  3.97669e-01
       O -3.95235e+00  2.16658e+00  1.31029e+01
       H -3.74847e+00  3.94117e-01  1.36993e+01
       H -4.33276e+00  2.31063e+00  1.12796e+01
       O -8.24874e+00  9.47857e+00  1.31050e+01
       H -8.27250e+00  7.59580e+00  1.32590e+01
       H -8.53221e+00  9.59274e+00  1.13085e+01
       O -4.54169e+00  2.51595e+00  7.58437e+00
       H -5.94188e+00  3.27555e+00  7.62932e+00
       H -3.04679e+00  3.81469e+00  7.47053e+00
       O  8.20323e+00  9.97850e+00  7.56504e+00
       H  6.83449e+00  1.12276e+01  7.42208e+00
       H -7.36754e+00  1.08009e+01  7.10879e+00
       O  8.19179e+00  5.19339e+00  6.09757e+00
       H  8.37379e+00  5.22063e+00  4.05123e+00
       H  8.29397e+00  7.04887e+00  6.76741e+00
       O -4.54361e+00  1.25627e+01  6.17211e+00
       H -4.22777e+00  1.23896e+01  4.15629e+00
       H -4.54770e+00  1.43713e+01  6.47671e+00
       O  2.93270e-01 -9.83988e+00 -1.32378e+01
       H -1.33834e+00 -1.08221e+01 -1.34319e+01
       H  1.95024e+00 -1.08854e+01 -1.35984e+01
       O  4.55335e+00 -2.61325e+00 -1.32174e+01
       H  3.52448e+00 -3.51924e+00 -1.38476e+01
       H  5.90865e+00 -3.75663e+00 -1.34197e+01
       O  4.57896e+00 -1.26052e+01 -7.27679e-01
       H  4.62596e+00 -1.45560e+01 -3.81891e-01
       H  4.29025e+00 -1.23542e+01 -2.62042e+00
       O  3.23281e-01 -5.21078e+00 -6.92168e-01
       H  6.16540e-01 -7.06533e+00 -5.01898e-01
       H -1.87937e-01 -5.08757e+00 -2.58569e+00
       O  4.02366e+00 -1.21063e+01 -6.23752e+00
       H  2.59399e+00 -1.14790e+01 -6.61257e+00
       H  5.40273e+00 -1.11396e+01 -6.59519e+00
       O -3.39021e-01 -4.72574e+00 -6.22743e+00
       H -2.21857e+00 -4.02619e+00 -6.54878e+00
       H  1.25400e+00 -3.73944e+00 -6.69114e+00
       O -2.02670e-01 -9.49469e+00 -7.72751e+00
       H -2.26417e-01 -9.43706e+00 -9.53725e+00
       H -1.12269e-01 -7.69045e+00 -7.05712e+00
       O  3.99508e+00 -2.11213e+00 -7.72699e+00
       H  4.10501e+00 -2.05149e+00 -9.35432e+00
       H  4.38810e+00 -3.37956e-01 -7.26529e+00
       O  2.71749e-01 -9.85258e+00  5.32843e-01
       H -1.35242e+00 -1.09559e+01  3.51732e-01
       H  1.81513e+00 -1.09180e+01  4.33462e-01
       O  4.62060e+00 -2.59347e+00  5.80441e-01
       H  3.30676e+00 -3.52786e+00  2.21609e-01
       H  6.00628e+00 -3.86044e+00  4.95481e-01
       O  4.52148e+00 -1.25027e+01  1.30605e+01
       H  4.59394e+00 -1.41802e+01  1.35318e+01
       H  4.60416e+00 -1.23719e+01  1.14240e+01
       O  2.95078e-01 -5.22675e+00  1.31101e+01
       H  3.60372e-01 -7.16183e+00  1.36792e+01
       H  5.81948e-02 -5.27024e+00  1.12138e+01
       O  3.91767e+00 -1.21504e+01  7.55578e+00
       H  2.53587e+00 -1.11147e+01  7.21445e+00
       H  5.49110e+00 -1.10676e+01  7.33080e+00
       O -2.86472e-01 -4.83541e+00  7.54594e+00
       H -1.97044e+00 -3.99568e+00  7.10294e+00
       H  1.14595e+00 -3.66022e+00  7.52189e+00
       O -3.00485e-01 -9.58193e+00  6.16070e+00
       H -4.40522e-01 -9.61749e+00  4.13502e+00
       H -5.63425e-02 -7.55978e+00  6.61231e+00
       O  3.88762e+00 -2.19751e+00  6.13175e+00
       H  4.29217e+00 -2.39794e+00  4.31345e+00
       H  3.85261e+00 -2.26165e-01  6.69390e+00
       O  2.82253e-01  4.76937e+00 -1.30879e+01
       H -1.24930e+00  3.88126e+00 -1.35182e+01
       H  1.79796e+00  3.71079e+00 -1.35659e+01
       O  4.51193e+00  1.22008e+01 -1.31770e+01
       H  3.18286e+00  1.11769e+01 -1.36088e+01
       H  6.08811e+00  1.13157e+01 -1.33909e+01
       O  4.54538e+00  2.11965e+00 -7.39303e-01
       H  4.35849e+00  2.58149e-01 -3.04812e-01
       H  4.53394e+00  2.25247e+00 -2.55189e+00
       O  2.80494e-01  9.57500e+00 -7.46011e-01
       H  4.26351e-01  7.52594e+00 -9.64585e-02
       H  6.73677e-02  9.61109e+00 -2.90972e+00
       O  3.93561e+00  2.58298e+00 -6.24189e+00
       H  2.37032e+00  3.56799e+00 -6.55606e+00
       H  5.67499e+00  3.51815e+00 -6.71179e+00
       O -2.24464e-01  9.97398e+00 -6.19979e+00
       H -1.93095e+00  1.09726e+01 -6.54745e+00
       H  9.12193e-01  1.11210e+01 -6.41563e+00
       O -2.85541e-01  5.13137e+00 -7.71590e+00
       H  5.08918e-02  5.29547e+00 -9.62480e+00
       H -3.03527e-01  6.95032e+00 -7.21572e+00
       O  3.99116e+00  1.26201e+01 -7.74143e+00
       H  4.23224e+00  1.25826e+01 -9.44360e+00
       H  3.79934e+00  1.42801e+01 -7.14502e+00
       O  2.56741e-01  4.82754e+00  6.20546e-01
       H -8.55302e-01  3.52124e+00  1.83216e-01
       H  1.76199e+00  3.59032e+00  3.89233e-01
       O  4.54815e+00  1.20674e+01  6.99788e-01
       H  3.19311e+00  1.11322e+01  2.04689e-01
       H  6.05559e+00  1.10817e+01  4.64522e-01
       O  4.55102e+00  2.22806e+00  1.30603e+01
       H  4.59323e+00  4.72020e-01  1.35552e+01
       H  4.39958e+00  2.58949e+00  1.11970e+01
       O  2.38463e-01  9.53965e+00  1.30775e+01
       H  5.92141e-01  8.00549e+00  1.38731e+01
       H  2.68447e-01  9.49483e+00  1.13796e+01
       O  4.01182e+00  2.50237e+00  7.62372e+00
       H  2.66998e+00  3.42395e+00  7.37346e+00
       H  5.44205e+00  3.89873e+00  6.95405e+00
       O -3.23923e-01  9.93799e+00  7.52480e+00
       H -1.49564e+00  1.11937e+01  7.56464e+00
       H  1.18382e+00  1.08432e+01  6.92802e+00
       O -3.00056e-01  5.21886e+00  6.14484e+00
       H -2.61039e-01  5.36716e+00  4.56067e+00
       H -6.63079e-02  7.12593e+00  6.76649e+00
       O  3.92805e+00  1.25794e+01  6.07647e+00
       H  4.01860e+00  1.25043e+01  4.26346e+00
       H  3.89887e+00  1.42734e+01  6.74564e+00
192
# CELL(abcABC):   16.99620    29.43815    27.67315    90.00000    90.00000    90.00000  Step:          20  Bead:      25 positions{atomic_unit}  cell{atomic_unit}
       O -8.25031e+00 -9.98697e+00 -1.31228e+01
       H  6.97886e+00 -1.10144e+01 -1.32972e+01
       H -6.84012e+00 -1.07708e+01 -1.36943e+01
       O -3.86972e+00 -2.61170e+00 -1.30791e+01
       H -5.11785e+00 -3.69558e+00 -1.36327e+01
       H -2.58644e+00 -3.51178e+00 -1.33888e+01
       O -3.90417e+00 -1.25388e+01 -8.63841e-01
       H -3.89624e+00 -1.45999e+01 -5.06334e-01
       H -4.30790e+00 -1.27076e+01 -2.74756e+00
       O -8.21195e+00 -5.25145e+00 -7.28828e-01
       H -8.03096e+00 -7.14822e+00 -2.45152e-01
       H -8.45583e+00 -5.14235e+00 -2.75929e+00
       O -4.57248e+00 -1.21372e+01 -6.26262e+00
       H -5.78685e+00 -1.10101e+01 -6.69087e+00
       H -3.22186e+00 -1.13551e+01 -6.68319e+00
       O  8.33601e+00 -4.74835e+00 -6.36109e+00
       H  6.57730e+00 -3.88521e+00 -6.37051e+00
       H -7.51442e+00 -3.38424e+00 -7.02616e+00
       O  8.17973e+00 -9.48307e+00 -7.63072e+00
       H  8.59273e+00 -9.57832e+00 -9.62793e+00
       H  7.74120e+00 -7.59754e+00 -7.03498e+00
       O -4.50455e+00 -2.19116e+00 -7.66774e+00
       H -4.14627e+00 -2.26830e+00 -9.52182e+00
       H -4.85456e+00 -4.65279e-01 -6.84960e+00
       O -8.25020e+00 -9.83345e+00  6.37840e-01
       H  7.51536e+00 -1.10461e+01  2.51759e-01
       H -6.60575e+00 -1.08986e+01 -9.89208e-03
       O -3.85547e+00 -2.58619e+00  7.63573e-01
       H -5.22971e+00 -3.94209e+00  3.37043e-01
       H -2.50623e+00 -3.78700e+00  5.87063e-01
       O -4.01556e+00 -1.25074e+01  1.30722e+01
       H -4.29668e+00 -1.44453e+01  1.35674e+01
       H -4.16061e+00 -1.25339e+01  1.11294e+01
       O -8.20669e+00 -5.25050e+00  1.31164e+01
       H -8.11369e+00 -7.23449e+00  1.33526e+01
       H -8.37149e+00 -5.06428e+00  1.12614e+01
       O -4.56129e+00 -1.21325e+01  7.59607e+00
       H -6.10410e+00 -1.10396e+01  6.80621e+00
       H -3.15772e+00 -1.09866e+01  7.05382e+00
       O  8.19617e+00 -4.81121e+00  7.57368e+00
       H  6.77773e+00 -3.67367e+00  7.29273e+00
       H -7.08990e+00 -3.35696e+00  7.06038e+00
       O  8.29112e+00 -9.52680e+00  6.20410e+00
       H  8.34432e+00 -9.61866e+00  4.28194e+00
       H  8.66310e+00 -7.64912e+00  6.76812e+00
       O -4.55597e+00 -2.14666e+00  6.16425e+00
       H -4.24981e+00 -2.22340e+00  4.00696e+00
       H -4.69933e+00 -2.65467e-01  6.70614e+00
       O -8.32218e+00  4.73281e+00 -1.32032e+01
       H  6.93885e+00  3.70851e+00 -1.33167e+01
       H -6.72324e+00  3.79870e+00 -1.37679e+01
       O -4.00142e+00  1.21561e+01 -1.31727e+01
       H -5.53693e+00  1.11392e+01 -1.35064e+01
       H -2.37238e+00  1.11327e+01 -1.33651e+01
       O -3.93426e+00  2.14779e+00 -9.18579e-01
       H -4.10794e+00  9.47932e-02 -3.79243e-01
       H -3.79753e+00  2.25821e+00 -2.82184e+00
       O -8.16897e+00  9.44778e+00 -8.29631e-01
       H -7.89101e+00  7.89755e+00 -2.48753e-01
       H -8.47046e+00  9.42254e+00 -2.72420e+00
       O -4.50393e+00  2.57864e+00 -6.28044e+00
       H -6.16592e+00  3.65108e+00 -6.49028e+00
       H -3.07007e+00  3.65465e+00 -6.96171e+00
       O  8.12033e+00  9.86247e+00 -6.21125e+00
       H  6.51118e+00  1.05161e+01 -6.60537e+00
       H -7.50974e+00  1.09501e+01 -6.72614e+00
       O  8.18614e+00  5.30353e+00 -7.67909e+00
       H  8.82932e+00  5.19998e+00 -9.47693e+00
       H  8.30730e+00  7.04639e+00 -6.91308e+00
       O -4.56949e+00  1.26099e+01 -7.75554e+00
       H -4.40853e+00  1.24409e+01 -9.27437e+00
       H -4.83222e+00  1.41336e+01 -7.19496e+00
       O -8.14019e+00  4.70204e+00  6.25710e-01
       H  7.12496e+00  3.87776e+00  4.62718e-01
       H -6.81004e+00  3.61048e+00  1.93525e-01
       O -3.99769e+00  1.21202e+01  6.53631e-01
       H -5.70126e+00  1.11053e+01  4.24560e-01
       H -2.66655e+00  1.08870e+01  4.64788e-01
       O -3.95678e+00  2.24219e+00  1.30529e+01
       H -3.64071e+00  1.92964e-01  1.37769e+01
       H -4.37600e+00  1.97414e+00  1.14527e+01
       O -8.28111e+00  9.51390e+00  1.30628e+01
       H -8.44489e+00  7.50976e+00  1.34242e+01
       H -8.69286e+00  9.59431e+00  1.11224e+01
       O -4.53903e+00  2.55559e+00  7.55266e+00
       H -6.06989e+00  3.22817e+00  7.75604e+00
       H -3.01220e+00  3.73123e+00  7.03924e+00
       O  8.23838e+00  1.00415e+01  7.53710e+00
       H  6.73762e+00  1.13560e+01  7.36871e+00
       H -7.23262e+00  1.10241e+01  6.85662e+00
       O  8.25412e+00  5.21455e+00  6.13886e+00
       H  8.37454e+00  5.28697e+00  4.19960e+00
       H  7.87104e+00  7.11669e+00  6.72415e+00
       O -4.50587e+00  1.25227e+01  6.18791e+00
       H -4.23493e+00  1.24406e+01  4.12893e+00
       H -4.29171e+00  1.42923e+01  6.65525e+00
       O  3.27614e-01 -9.81938e+00 -1.33165e+01
       H -1.19640e+00 -1.07988e+01 -1.31128e+01
       H  1.83819e+00 -1.08201e+01 -1.34116e+01
       O  4.59448e+00 -2.60004e+00 -1.32007e+01
       H  3.02512e+00 -3.73271e+00 -1.38871e+01
       H  6.02474e+00 -3.76299e+00 -1.36596e+01
       O  4.52707e+00 -1.26304e+01 -8.22407e-01
       H  4.74474e+00 -1.44748e+01 -3.03020e-01
       H  4.16684e+00 -1.21336e+01 -2.65710e+00
       O  3.09038e-01 -5.23068e+00 -6.80787e-01
       H  5.30537e-01 -7.09681e+00 -4.64860e-01
       H -5.95226e-02 -5.01752e+00 -2.26427e+00
       O  4.00510e+00 -1.20881e+01 -6.18930e+00
       H  2.44543e+00 -1.15042e+01 -6.66191e+00
       H  5.50521e+00 -1.10150e+01 -6.51099e+00
       O -3.32342e-01 -4.77124e+00 -6.27336e+00
       H -2.12318e+00 -4.12558e+00 -6.65056e+00
       H  1.15089e+00 -3.60258e+00 -6.79031e+00
       O -1.57896e-01 -9.42031e+00 -7.74044e+00
       H -1.21831e-01 -9.17876e+00 -9.71510e+00
       H -1.48967e-01 -7.41880e+00 -7.30648e+00
       O  4.05419e+00 -2.15348e+00 -7.68173e+00
       H  3.88180e+00 -2.27618e+00 -9.83544e+00
       H  4.50647e+00 -2.22527e-01 -7.20318e+00
       O  3.03940e-01 -9.86591e+00  5.37258e-01
       H -1.06324e+00 -1.07901e+01  9.97018e-02
       H  1.70292e+00 -1.10191e+01  6.11976e-01
       O  4.56123e+00 -2.59555e+00  5.71803e-01
       H  3.05577e+00 -3.77489e+00  4.37946e-01
       H  6.26394e+00 -3.96462e+00  3.60344e-01
       O  4.57915e+00 -1.25186e+01  1.31047e+01
       H  4.69119e+00 -1.44906e+01  1.32962e+01
       H  4.43924e+00 -1.21414e+01  1.12870e+01
       O  2.99070e-01 -5.26716e+00  1.31721e+01
       H  3.47141e-01 -7.04940e+00  1.36601e+01
       H  1.29212e-01 -5.32665e+00  1.15267e+01
       O  3.90655e+00 -1.21590e+01  7.54076e+00
       H  2.45799e+00 -1.10483e+01  7.35355e+00
       H  5.38979e+00 -1.10712e+01  7.27506e+00
       O -2.96444e-01 -4.77102e+00  7.56964e+00
       H -1.84506e+00 -3.44319e+00  7.19146e+00
       H  1.20607e+00 -3.72381e+00  7.38269e+00
       O -3.12231e-01 -9.62610e+00  6.11047e+00
       H -3.21754e-01 -9.55427e+00  4.34249e+00
       H -2.78021e-02 -7.62982e+00  6.57106e+00
       O  3.88282e+00 -2.20160e+00  6.13409e+00
       H  4.14387e+00 -2.42597e+00  4.31362e+00
       H  3.80539e+00 -3.06085e-01  6.58030e+00
       O  2.49617e-01  4.81479e+00 -1.30153e+01
       H -1.19003e+00  4.05037e+00 -1.35655e+01
       H  1.60281e+00  3.92972e+00 -1.34674e+01
       O  4.45281e+00  1.21929e+01 -1.32009e+01
       H  3.01573e+00  1.09874e+01 -1.37370e+01
       H  6.08034e+00  1.11115e+01 -1.32849e+01
       O  4.52273e+00  2.13428e+00 -7.23982e-01
       H  4.27292e+00  4.44939e-01 -4.59877e-01
       H  4.65205e+00  2.46337e+00 -2.70810e+00
       O  2.12559e-01  9.56620e+00 -7.26171e-01
       H  1.17792e-01  7.74495e+00 -1.15915e-01
       H -1.17523e-01  9.53471e+00 -2.76808e+00
       O  3.91098e+00  2.54707e+00 -6.17731e+00
       H  2.16281e+00  3.47538e+00 -6.61132e+00
       H  5.51557e+00  3.50362e+00 -6.34980e+00
       O -1.85205e-01  9.90835e+00 -6.19488e+00
       H -1.79442e+00  1.09328e+01 -6.59391e+00
       H  9.63229e-01  1.12561e+01 -6.51234e+00
       O -2.62641e-01  5.14249e+00 -7.70342e+00
       H  2.70080e-02  5.28007e+00 -9.57503e+00
       H -3.23541e-01  6.72892e+00 -7.22949e+00
       O  3.99630e+00  1.26150e+01 -7.69114e+00
       H  4.25292e+00  1.26832e+01 -9.39594e+00
       H  3.84791e+00  1.44557e+01 -7.10250e+00
       O  2.26459e-01  4.85918e+00  7.07969e-01
       H -1.22040e+00  3.70553e+00  1.46795e-01
       H  2.09853e+00  3.68219e+00  6.33225e-01
       O  4.60899e+00  1.20908e+01  6.90196e-01
       H  3.10224e+00  1.11098e+01  9.52326e-02
       H  6.14028e+00  1.10581e+01  2.31979e-01
       O  4.54582e+00  2.20011e+00  1.30554e+01
       H  4.77609e+00  5.98063e-01  1.33967e+01
       H  4.31297e+00  2.43540e+00  1.12416e+01
       O  2.54961e-01  9.55145e+00  1.30630e+01
       H  6.71052e-01  8.02494e+00  1.39441e+01
       H  2.17796e-01  9.31467e+00  1.09832e+01
       O  3.96437e+00  2.50277e+00  7.64734e+00
       H  2.28137e+00  3.47272e+00  7.11346e+00
       H  5.32015e+00  3.81324e+00  7.30612e+00
       O -3.00403e-01  9.92028e+00  7.53618e+00
       H -1.82138e+00  1.09976e+01  7.49950e+00
       H  1.02070e+00  1.07294e+01  7.08316e+00
       O -3.07207e-01  5.27820e+00  6.16720e+00
       H -2.80897e-01  5.46341e+00  4.27823e+00
       H  1.48704e-01  6.97478e+00  6.76639e+00
       O  3.93037e+00  1.25783e+01  6.01874e+00
       H  4.06551e+00  1.28657e+01  4.01282e+00
       H  3.56761e+00  1.42447e+01  6.71262e+00
192
# CELL(abcABC):   16.99620    29.43815    27.67315    90.00000    90.00000    90.00000  Step:          30  Bead:      25 positions{atomic_unit}  cell{atomic_unit}
       O -8.21059e+00 -9.99299e+00 -1.31982e+01
       H  6.98181e+00 -1.09639e+01 -1.30677e+01
       H -6.82644e+00 -1.08926e+01 -1.37532e+01
       O -3.90209e+00 -2.58435e+00 -1.30998e+01
       H -5.37540e+00 -3.82541e+00 -1.32448e+01
       H -2.35243e+00 -3.64701e+00 -1.35305e+01
       O -3.89855e+00 -1.25329e+01 -8.95902e-01
       H -4.07862e+00 -1.47782e+01 -6.77217e-01
       H -4.30156e+00 -1.25511e+01 -2.62534e+00
       O -8.22694e+00 -5.21846e+00 -7.08617e-01
       H -7.80265e+00 -7.06923e+00 -2.50296e-01
       H -8.53903e+00 -5.33567e+00 -2.51892e+00
       O -4.53626e+00 -1.21344e+01 -6.25512e+00
       H -5.83666e+00 -1.09267e+01 -6.72207e+00
       H -2.94424e+00 -1.13691e+01 -6.54747e+00
       O  8.26961e+00 -4.67574e+00 -6.37240e+00
       H  6.63581e+00 -3.88603e+00 -6.35432e+00
       H -7.57453e+00 -3.68920e+00 -6.93116e+00
       O  8.25803e+00 -9.45398e+00 -7.64716e+00
       H  8.41630e+00 -9.25063e+00 -9.49479e+00
       H  7.81509e+00 -7.51777e+00 -6.90557e+00
       O -4.50654e+00 -2.21457e+00 -7.64748e+00
       H -4.25050e+00 -2.18072e+00 -9.43362e+00
       H -4.90905e+00 -5.57115e-01 -6.53732e+00
       O -8.27744e+00 -9.86813e+00  6.01657e-01
       H  7.39762e+00 -1.10041e+01  6.36241e-02
       H -6.93380e+00 -1.12359e+01 -6.37745e-02
       O -3.94803e+00 -2.66525e+00  7.64686e-01
       H -5.20831e+00 -3.72821e+00  4.90529e-01
       H -2.56290e+00 -3.95931e+00  4.10437e-01
       O -3.93368e+00 -1.24963e+01  1.30557e+01
       H -4.50631e+00 -1.45517e+01  1.31485e+01
       H -3.69731e+00 -1.24900e+01  1.12974e+01
       O -8.23183e+00 -5.15172e+00  1.31891e+01
       H -8.12800e+00 -6.98332e+00  1.34362e+01