192
# CELL(abcABC):   16.99620    29.43815    27.67315    90.00000    90.00000    90.00000  Step:           0  Bead:      18 positions{atomic_unit}  cell{atomic_unit}
       O -8.22215e+00 -9.94239e+00 -1.31733e+01
       H  7.30664e+00 -1.09711e+01 -1.36322e+01
       H -6.70615e+00 -1.09482e+01 -1.35006e+01
       O -3.97298e+00 -2.58228e+00 -1.31734e+01
       H -5.44033e+00 -3.61131e+00 -1.36317e+01
       H -2.45697e+00 -3.58820e+00 -1.35005e+01
       O -3.95756e+00 -1.25543e+01 -7.82386e-01
       H -3.95604e+00 -1.43515e+01 -2.29143e-01
       H -4.14759e+00 -1.25671e+01 -2.59983e+00
       O -8.20667e+00 -5.19495e+00 -7.82227e-01
       H -8.20527e+00 -6.99211e+00 -2.28860e-01
       H -8.39642e+00 -5.20788e+00 -2.59970e+00
       O -4.52495e+00 -1.21366e+01 -6.25523e+00
       H -6.04104e+00 -1.11308e+01 -6.58223e+00
       H -3.05766e+00 -1.11077e+01 -6.71383e+00
       O  8.22247e+00 -4.77716e+00 -6.25561e+00
       H  6.70639e+00 -3.77128e+00 -6.58235e+00
       H -7.30644e+00 -3.74813e+00 -6.71411e+00
       O  8.20650e+00 -9.52435e+00 -7.70064e+00
       H  8.39647e+00 -9.51190e+00 -9.51809e+00
       H  8.20529e+00 -7.72704e+00 -7.14768e+00
       O -4.54027e+00 -2.16431e+00 -7.70075e+00
       H -4.35006e+00 -2.15153e+00 -9.51816e+00
       H -4.54166e+00 -3.67089e-01 -7.14744e+00
       O -8.22211e+00 -9.94193e+00  6.63469e-01
       H  7.30672e+00 -1.09707e+01  2.04633e-01
       H -6.70609e+00 -1.09478e+01  3.36365e-01
       O -3.97290e+00 -2.58257e+00  6.63081e-01
       H -5.44032e+00 -3.61148e+00  2.04655e-01
       H -2.45688e+00 -3.58848e+00  3.35971e-01
       O -3.95760e+00 -1.25545e+01  1.30538e+01
       H -3.95614e+00 -1.43517e+01  1.36071e+01
       H -4.14757e+00 -1.25673e+01  1.12363e+01
       O -8.20656e+00 -5.19529e+00  1.30545e+01
       H -8.20517e+00 -6.99250e+00  1.36078e+01
       H -8.39634e+00 -5.20824e+00  1.12370e+01
       O -4.52490e+00 -1.21367e+01  7.58138e+00
       H -6.04102e+00 -1.11309e+01  7.25435e+00
       H -3.05757e+00 -1.11078e+01  7.12272e+00
       O  8.22232e+00 -4.77760e+00  7.58065e+00
       H  6.70627e+00 -3.77169e+00  7.25392e+00
       H -7.30657e+00 -3.74862e+00  7.12211e+00
       O  8.20656e+00 -9.52478e+00  6.13597e+00
       H  8.39651e+00 -9.51229e+00  4.31849e+00
       H  8.20527e+00 -7.72747e+00  6.68889e+00
       O -4.54025e+00 -2.16471e+00  6.13560e+00
       H -4.34999e+00 -2.15183e+00  4.31818e+00
       H -4.54168e+00 -3.67533e-01  6.68897e+00
       O -8.22212e+00  4.77724e+00 -1.31733e+01
       H  7.30671e+00  3.74833e+00 -1.36320e+01
       H -6.70607e+00  3.77135e+00 -1.35002e+01
       O -3.97288e+00  1.21369e+01 -1.31734e+01
       H -5.44030e+00  1.11079e+01 -1.36317e+01
       H -2.45689e+00  1.11310e+01 -1.35006e+01
       O -3.95757e+00  2.16435e+00 -7.82368e-01
       H -3.95607e+00  3.67109e-01 -2.29207e-01
       H -4.14756e+00  2.15166e+00 -2.59983e+00
       O -8.20667e+00  9.52420e+00 -7.81868e-01
       H -8.20527e+00  7.72699e+00 -2.28645e-01
       H -8.39652e+00  9.51128e+00 -2.59932e+00
       O -4.52494e+00  2.58246e+00 -6.25501e+00
       H -6.04100e+00  3.58821e+00 -6.58223e+00
       H -3.05758e+00  3.61139e+00 -6.71360e+00
       O  8.22236e+00  9.94146e+00 -6.25587e+00
       H  6.70631e+00  1.09474e+01 -6.58279e+00
       H -7.30653e+00  1.09705e+01 -6.71435e+00
       O  8.20665e+00  5.19438e+00 -7.70097e+00
       H  8.39659e+00  5.20693e+00 -9.51844e+00
       H  8.20533e+00  6.99167e+00 -7.14797e+00
       O -4.54026e+00  1.25545e+01 -7.70081e+00
       H -4.34992e+00  1.25674e+01 -9.51823e+00
       H -4.54169e+00  1.43517e+01 -7.14749e+00
       O -8.22210e+00  4.77691e+00  6.62996e-01
       H  7.30665e+00  3.74808e+00  2.04431e-01
       H -6.70613e+00  3.77091e+00  3.36028e-01
       O -3.97279e+00  1.21369e+01  6.63306e-01
       H -5.44019e+00  1.11079e+01  2.05006e-01
       H -2.45681e+00  1.11309e+01  3.36133e-01
       O -3.95757e+00  2.16479e+00  1.30545e+01
       H -3.95616e+00  3.67575e-01  1.36077e+01
       H -4.14769e+00  2.15200e+00  1.12370e+01
       O -8.20659e+00  9.52434e+00  1.30546e+01
       H -8.20522e+00  7.72713e+00  1.36079e+01
       H -8.39644e+00  9.51145e+00  1.12371e+01
       O -4.52499e+00  2.58228e+00  7.58148e+00
       H -6.04100e+00  3.58814e+00  7.25437e+00
       H -3.05766e+00  3.61126e+00  7.12297e+00
       O  8.22229e+00  9.94203e+00  7.58108e+00
       H  6.70627e+00  1.09480e+01  7.25419e+00
       H -7.30655e+00  1.09710e+01  7.12260e+00
       O  8.20668e+00  5.19493e+00  6.13567e+00
       H  8.39670e+00  5.20749e+00  4.31823e+00
       H  8.20535e+00  6.99219e+00  6.68874e+00
       O -4.54018e+00  1.25546e+01  6.13603e+00
       H -4.34989e+00  1.25674e+01  4.31861e+00
       H -4.54161e+00  1.43518e+01  6.68925e+00
       O  2.75877e-01 -9.94198e+00 -1.31737e+01
       H -1.19147e+00 -1.09709e+01 -1.36323e+01
       H  1.79191e+00 -1.09478e+01 -1.35009e+01
       O  4.52479e+00 -2.58220e+00 -1.31736e+01
       H  3.05750e+00 -3.61120e+00 -1.36322e+01
       H  6.04084e+00 -3.58815e+00 -1.35003e+01
       O  4.54038e+00 -1.25538e+01 -7.82378e-01
       H  4.54166e+00 -1.43510e+01 -2.29173e-01
       H  4.35042e+00 -1.25666e+01 -2.59983e+00
       O  2.91382e-01 -5.19489e+00 -7.82498e-01
       H  2.92775e-01 -6.99208e+00 -2.29179e-01
       H  1.01240e-01 -5.20770e+00 -2.59994e+00
       O  3.97307e+00 -1.21369e+01 -6.25482e+00
       H  2.45707e+00 -1.11310e+01 -6.58187e+00
       H  5.44043e+00 -1.11080e+01 -6.71350e+00
       O -2.76167e-01 -4.77714e+00 -6.25484e+00
       H -1.79215e+00 -3.77120e+00 -6.58193e+00
       H  1.19122e+00 -3.74822e+00 -6.71327e+00
       O -2.91294e-01 -9.52406e+00 -7.70061e+00
       H -1.01153e-01 -9.51128e+00 -9.51804e+00
       H -2.92737e-01 -7.72684e+00 -7.14734e+00
       O  3.95740e+00 -2.16468e+00 -7.70029e+00
       H  4.14711e+00 -2.15178e+00 -9.51779e+00
       H  3.95613e+00 -3.67477e-01 -7.14700e+00
       O  2.75838e-01 -9.94166e+00  6.63265e-01
       H -1.19143e+00 -1.09706e+01  2.04532e-01
       H  1.79197e+00 -1.09474e+01  3.36068e-01
       O  4.52471e+00 -2.58218e+00  6.62891e-01
       H  3.05743e+00 -3.61117e+00  2.04240e-01
       H  6.04080e+00 -3.58806e+00  3.36089e-01
       O  4.54037e+00 -1.25543e+01  1.30539e+01
       H  4.54173e+00 -1.43516e+01  1.36070e+01
       H  4.35050e+00 -1.25670e+01  1.12364e+01
       O  2.91297e-01 -5.19502e+00  1.30541e+01
       H  2.92732e-01 -6.99225e+00  1.36074e+01
       H  1.01206e-01 -5.20786e+00  1.12367e+01
       O  3.97310e+00 -1.21368e+01  7.58177e+00
       H  2.45707e+00 -1.11309e+01  7.25464e+00
       H  5.44051e+00 -1.11080e+01  7.12302e+00
       O -2.76100e-01 -4.77767e+00  7.58136e+00
       H -1.79210e+00 -3.77177e+00  7.25428e+00
       H  1.19125e+00 -3.74871e+00  7.12290e+00
       O -2.91340e-01 -9.52458e+00  6.13593e+00
       H -1.01282e-01 -9.51181e+00  4.31852e+00
       H -2.92762e-01 -7.72734e+00  6.68916e+00
       O  3.95728e+00 -2.16475e+00  6.13602e+00
       H  4.14704e+00 -2.15175e+00  4.31853e+00
       H  3.95603e+00 -3.67615e-01  6.68942e+00
       O  2.75872e-01  4.77775e+00 -1.31735e+01
       H -1.19145e+00  3.74868e+00 -1.36320e+01
       H  1.79192e+00  3.77189e+00 -1.35005e+01
       O  4.52473e+00  1.21369e+01 -1.31737e+01
       H  3.05744e+00  1.11080e+01 -1.36325e+01
       H  6.04082e+00  1.11311e+01 -1.35004e+01
       O  4.54033e+00  2.16480e+00 -7.82502e-01
       H  4.54166e+00  3.67553e-01 -2.29384e-01
       H  4.35052e+00  2.15214e+00 -2.60000e+00
       O  2.91442e-01  9.52423e+00 -7.82681e-01
       H  2.92837e-01  7.72701e+00 -2.29452e-01
       H  1.01299e-01  9.51146e+00 -2.60013e+00
       O  3.97319e+00  2.58230e+00 -6.25496e+00
       H  2.45717e+00  3.58819e+00 -6.58198e+00
       H  5.44056e+00  3.61109e+00 -6.71379e+00
       O -2.76125e-01  9.94167e+00 -6.25515e+00
       H -1.79212e+00  1.09476e+01 -6.58222e+00
       H  1.19126e+00  1.09706e+01 -6.71377e+00
       O -2.91369e-01  5.19475e+00 -7.70046e+00
       H -1.01380e-01  5.20765e+00 -9.51793e+00
       H -2.92793e-01  6.99195e+00 -7.14718e+00
       O  3.95737e+00  1.25543e+01 -7.70076e+00
       H  4.14703e+00  1.25673e+01 -9.51824e+00
       H  3.95606e+00  1.43514e+01 -7.14726e+00
       O  2.75794e-01  4.77734e+00  6.62959e-01
       H -1.19152e+00  3.74832e+00  2.04499e-01
       H  1.79186e+00  3.77147e+00  3.35887e-01
       O  4.52464e+00  1.21373e+01  6.62988e-01
       H  3.05745e+00  1.11082e+01  2.04218e-01
       H  6.04076e+00  1.11314e+01  3.36450e-01
       O  4.54041e+00  2.16499e+00  1.30543e+01
       H  4.54178e+00  3.67749e-01  1.36074e+01
       H  4.35054e+00  2.15228e+00  1.12368e+01
       O  2.91308e-01  9.52457e+00  1.30538e+01
       H  2.92715e-01  7.72735e+00  1.36071e+01
       H  1.01225e-01  9.51181e+00  1.12363e+01
       O  3.97315e+00  2.58235e+00  7.58152e+00
       H  2.45713e+00  3.58829e+00  7.25455e+00
       H  5.44048e+00  3.61122e+00  7.12279e+00
       O -2.76008e-01  9.94202e+00  7.58171e+00
       H -1.79205e+00  1.09479e+01  7.25468e+00
       H  1.19134e+00  1.09710e+01  7.12317e+00
       O -2.91416e-01  5.19510e+00  6.13606e+00
       H -1.01371e-01  5.20795e+00  4.31863e+00
       H -2.92777e-01  6.99228e+00  6.68938e+00
       O  3.95729e+00  1.25546e+01  6.13612e+00
       H  4.14688e+00  1.25676e+01  4.31864e+00
       H  3.95603e+00  1.43518e+01  6.68952e+00
192
# CELL(abcABC):   16.99620    29.43815    27.67315    90.00000    90.00000    90.00000  Step:          10  Bead:      18 positions{atomic_unit}  cell{atomic_unit}
       O -8.15572e+00 -9.93217e+00 -1.31072e+01
       H  6.95867e+00 -1.10214e+01 -1.36921e+01
       H -6.71020e+00 -1.11538e+01 -1.35059e+01
       O -3.99112e+00 -2.57895e+00 -1.31567e+01
       H -5.29695e+00 -3.66156e+00 -1.36799e+01
       H -2.33683e+00 -3.13339e+00 -1.35345e+01
       O -3.97604e+00 -1.25183e+01 -7.81602e-01
       H -4.01521e+00 -1.41538e+01 -4.93728e-01
       H -4.32399e+00 -1.25254e+01 -2.62444e+00
       O -8.19176e+00 -5.18400e+00 -8.09375e-01
       H -8.31551e+00 -6.82013e+00 -3.07240e-01
       H -8.55684e+00 -5.19334e+00 -2.60222e+00
       O -4.53497e+00 -1.21750e+01 -6.27721e+00
       H -5.96588e+00 -1.10001e+01 -6.79880e+00
       H -2.83200e+00 -1.10391e+01 -6.86900e+00
       O  8.27722e+00 -4.80616e+00 -6.31865e+00
       H  7.04991e+00 -3.61923e+00 -6.80829e+00
       H -7.47371e+00 -3.92334e+00 -6.96126e+00
       O  8.27848e+00 -9.50027e+00 -7.63136e+00
       H  8.30567e+00 -9.53299e+00 -9.47593e+00
       H  8.12490e+00 -7.81597e+00 -7.14172e+00
       O -4.54685e+00 -2.16840e+00 -7.69443e+00
       H -4.47820e+00 -2.17274e+00 -9.50793e+00
       H -4.58018e+00 -4.97619e-01 -7.09309e+00
       O -8.16182e+00 -9.89057e+00  6.56536e-01
       H  7.26361e+00 -1.11509e+01  4.70333e-01
       H -6.78961e+00 -1.10646e+01  1.71532e-01
       O -4.00295e+00 -2.58249e+00  6.79542e-01
       H -5.53293e+00 -3.43013e+00  4.48123e-01
       H -2.34222e+00 -3.70760e+00  2.95883e-01
       O -3.90427e+00 -1.25393e+01  1.31110e+01
       H -3.97477e+00 -1.42347e+01  1.36037e+01
       H -4.30575e+00 -1.24109e+01  1.13701e+01
       O -8.22642e+00 -5.16571e+00  1.30543e+01
       H -8.14992e+00 -6.99879e+00  1.37014e+01
       H -8.33291e+00 -4.89297e+00  1.09637e+01
       O -4.52752e+00 -1.20981e+01  7.56399e+00
       H -5.93160e+00 -1.10952e+01  7.16885e+00
       H -3.10591e+00 -1.09704e+01  7.27521e+00
       O  8.17461e+00 -4.77470e+00  7.56133e+00
       H  6.70720e+00 -3.86692e+00  6.91446e+00
       H -7.37336e+00 -3.90352e+00  7.11113e+00
       O  8.17689e+00 -9.58059e+00  6.09575e+00
       H  8.13676e+00 -9.20023e+00  4.38754e+00
       H  8.52421e+00 -7.87899e+00  6.84097e+00
       O -4.60792e+00 -2.13168e+00  6.13511e+00
       H -4.43222e+00 -2.06853e+00  4.30161e+00
       H -4.44322e+00 -2.96270e-01  6.87863e+00
       O -8.18939e+00  4.72592e+00 -1.32479e+01
       H  7.34847e+00  3.70131e+00 -1.35689e+01
       H -6.68041e+00  3.69197e+00 -1.36917e+01
       O -3.95051e+00  1.21133e+01 -1.31129e+01
       H -5.53745e+00  1.13891e+01 -1.36984e+01
       H -2.11601e+00  1.11653e+01 -1.34635e+01
       O -3.99168e+00  2.16124e+00 -8.05589e-01
       H -4.06794e+00  3.20408e-01 -2.46571e-01
       H -4.18789e+00  2.18218e+00 -2.65692e+00
       O -8.15038e+00  9.51454e+00 -8.29006e-01
       H -8.18782e+00  7.72019e+00 -3.03583e-01
       H -8.33667e+00  9.44006e+00 -2.74223e+00
       O -4.55339e+00  2.52646e+00 -6.19578e+00
       H -6.08844e+00  3.60069e+00 -6.62031e+00
       H -2.84897e+00  3.73942e+00 -6.42451e+00
       O  8.19096e+00  9.95239e+00 -6.25743e+00
       H  6.52095e+00  1.09155e+01 -6.18688e+00
       H -7.11391e+00  1.09586e+01 -6.52455e+00
       O  8.17151e+00  5.21176e+00 -7.69538e+00
       H  8.33212e+00  5.02909e+00 -9.45544e+00
       H  8.13700e+00  7.28408e+00 -7.17928e+00
       O -4.52129e+00  1.25409e+01 -7.68964e+00
       H -4.28270e+00  1.25672e+01 -9.46896e+00
       H -4.54590e+00  1.46497e+01 -7.29105e+00
       O -8.21936e+00  4.74405e+00  7.07603e-01
       H  7.41696e+00  3.59889e+00  2.62425e-01
       H -6.72590e+00  3.67874e+00  6.81192e-01
       O -3.99896e+00  1.21363e+01  5.87402e-01
       H -5.61544e+00  1.11022e+01  2.89812e-01
       H -2.29144e+00  1.12821e+01  3.07591e-01
       O -3.92996e+00  2.22831e+00  1.30695e+01
       H -3.92758e+00  4.53292e-01  1.33617e+01
       H -4.07456e+00  2.02111e+00  1.14602e+01
       O -8.16507e+00  9.51174e+00  1.30943e+01
       H -8.22352e+00  7.74848e+00  1.34209e+01
       H -8.49922e+00  9.48380e+00  1.11109e+01
       O -4.48699e+00  2.56935e+00  7.47740e+00
       H -6.08571e+00  3.68425e+00  7.08146e+00
       H -3.05627e+00  3.47877e+00  6.84988e+00
       O  8.19860e+00  1.00204e+01  7.55371e+00
       H  6.81027e+00  1.09645e+01  6.97180e+00
       H -7.24786e+00  1.07924e+01  7.36206e+00
       O  8.26907e+00  5.19055e+00  6.16717e+00
       H  8.61012e+00  5.32047e+00  4.32169e+00
       H  8.18820e+00  6.87408e+00  6.66873e+00
       O -4.55490e+00  1.25367e+01  6.08156e+00
       H -4.33789e+00  1.26358e+01  4.02889e+00
       H -4.41814e+00  1.43433e+01  6.77477e+00
       O  2.93197e-01 -9.98077e+00 -1.32189e+01
       H -1.23737e+00 -1.10609e+01 -1.36521e+01
       H  1.91016e+00 -1.10536e+01 -1.33441e+01
       O  4.57907e+00 -2.60119e+00 -1.31254e+01
       H  3.35651e+00 -3.87468e+00 -1.36944e+01
       H  6.01791e+00 -3.57672e+00 -1.35440e+01
       O  4.53631e+00 -1.25561e+01 -7.86749e-01
       H  4.58322e+00 -1.44005e+01 -2.75035e-01
       H  4.52311e+00 -1.25864e+01 -2.79646e+00
       O  2.77533e-01 -5.20640e+00 -7.99509e-01
       H  1.46423e-01 -7.18391e+00 -4.37954e-01
       H  1.60372e-01 -5.07952e+00 -2.73084e+00
       O  3.94194e+00 -1.22224e+01 -6.21058e+00
       H  2.51213e+00 -1.12750e+01 -6.81125e+00
       H  5.54966e+00 -1.14413e+01 -6.65095e+00
       O -3.03358e-01 -4.74038e+00 -6.30521e+00
       H -1.98946e+00 -3.71593e+00 -6.55729e+00
       H  1.34359e+00 -3.59940e+00 -6.93456e+00
       O -2.89346e-01 -9.54939e+00 -7.68485e+00
       H -1.54910e-01 -9.45881e+00 -9.49980e+00
       H -3.39124e-01 -7.44766e+00 -6.90026e+00
       O  3.95288e+00 -2.18827e+00 -7.68542e+00
       H  4.17962e+00 -2.14611e+00 -9.36698e+00
       H  4.02551e+00 -3.00150e-01 -7.03216e+00
       O  2.26611e-01 -9.91962e+00  6.43685e-01
       H -8.88430e-01 -1.10315e+01  2.98077e-01
       H  1.71627e+00 -1.08795e+01  5.61369e-01
       O  4.46349e+00 -2.56844e+00  6.27957e-01
       H  2.96692e+00 -3.59710e+00  1.52850e-01
       H  6.23444e+00 -3.45245e+00  1.54106e-01
       O  4.54398e+00 -1.24833e+01  1.30328e+01
       H  4.71512e+00 -1.45183e+01  1.34932e+01
       H  4.39837e+00 -1.23658e+01  1.13176e+01
       O  2.42592e-01 -5.16895e+00  1.30217e+01
       H  2.38269e-01 -6.85565e+00  1.40370e+01
       H  2.41879e-01 -5.10446e+00  1.11615e+01
       O  3.86827e+00 -1.20807e+01  7.61665e+00
       H  2.29646e+00 -1.09987e+01  7.30903e+00
       H  5.52981e+00 -1.12276e+01  7.06256e+00
       O -2.31233e-01 -4.82198e+00  7.56163e+00
       H -1.59540e+00 -3.77215e+00  7.20853e+00
       H  1.28182e+00 -3.66812e+00  7.23529e+00
       O -3.11584e-01 -9.55324e+00  6.18605e+00
       H -3.59731e-01 -9.51507e+00  4.41699e+00
       H -2.69839e-01 -7.78894e+00  6.89304e+00
       O  3.92631e+00 -2.17557e+00  6.17108e+00
       H  4.02673e+00 -2.23315e+00  4.33173e+00
       H  4.01426e+00 -3.53253e-01  6.68121e+00
       O  3.01013e-01  4.83200e+00 -1.31519e+01
       H -9.08333e-01  3.76676e+00 -1.37537e+01
       H  1.67158e+00  3.75644e+00 -1.37312e+01
       O  4.47140e+00  1.21395e+01 -1.32137e+01
       H  3.15104e+00  1.10701e+01 -1.35443e+01
       H  5.80629e+00  1.11890e+01 -1.34496e+01
       O  4.45958e+00  2.20745e+00 -7.76461e-01
       H  4.81410e+00  4.91561e-01 -1.58436e-01
       H  4.34984e+00  2.12195e+00 -2.46761e+00
       O  2.67953e-01  9.43635e+00 -7.82416e-01
       H  2.62398e-01  7.50967e+00 -1.28866e-01
       H  1.30404e-01  9.31375e+00 -2.51587e+00
       O  3.97924e+00  2.52603e+00 -6.19691e+00
       H  2.55211e+00  3.35452e+00 -6.79887e+00
       H  5.45418e+00  3.64923e+00 -6.77757e+00
       O -2.80700e-01  9.88341e+00 -6.35493e+00
       H -1.95601e+00  1.08010e+01 -6.57583e+00
       H  1.25665e+00  1.12060e+01 -6.51116e+00
       O -2.57828e-01  5.19417e+00 -7.71727e+00
       H  2.37940e-02  5.34586e+00 -9.70196e+00
       H -1.91291e-01  6.98319e+00 -7.15033e+00
       O  3.92072e+00  1.26007e+01 -7.80037e+00
       H  4.45587e+00  1.26297e+01 -9.67608e+00
       H  3.85808e+00  1.42390e+01 -6.88053e+00
       O  2.52804e-01  4.72055e+00  7.19769e-01
       H -1.13945e+00  3.67275e+00  2.14822e-01
       H  1.55072e+00  3.68932e+00  3.07906e-01
       O  4.54955e+00  1.21640e+01  7.20747e-01
       H  2.93740e+00  1.11073e+01  1.05039e-02
       H  5.98114e+00  1.10135e+01  2.06467e-01
       O  4.51471e+00  2.17927e+00  1.30157e+01
       H  4.63648e+00  2.23972e-01  1.36818e+01
       H  4.26318e+00  1.94731e+00  1.11483e+01
       O  2.32624e-01  9.56045e+00  1.30914e+01
       H  4.65634e-01  7.75612e+00  1.37443e+01
       H -1.21056e-01  9.24989e+00  1.14372e+01
       O  3.84783e+00  2.56983e+00  7.64168e+00
       H  2.39883e+00  3.34149e+00  7.25793e+00
       H  5.37543e+00  3.83084e+00  7.13529e+00
       O -3.87758e-01  9.89539e+00  7.62676e+00
       H -1.72338e+00  1.10011e+01  7.32555e+00
       H  1.26619e+00  1.08873e+01  7.27680e+00
       O -2.80066e-01  5.22776e+00  6.08925e+00
       H -3.43555e-02  5.33217e+00  4.34074e+00
       H -2.96338e-01  6.87705e+00  6.71829e+00
       O  3.95592e+00  1.24631e+01  6.08404e+00
       H  4.13806e+00  1.28559e+01  4.40044e+00
       H  4.06609e+00  1.44876e+01  6.93706e+00
192
# CELL(abcABC):   16.99620    29.43815    27.67315    90.00000    90.00000    90.00000  Step:          20  Bead:      18 positions{atomic_unit}  cell{atomic_unit}
       O -8.11916e+00 -9.94180e+00 -1.30942e+01
       H  7.04652e+00 -1.08437e+01 -1.37042e+01
       H -6.59912e+00 -1.10957e+01 -1.37898e+01
       O -4.06055e+00 -2.49395e+00 -1.31537e+01
       H -5.38399e+00 -3.60171e+00 -1.35062e+01
       H -2.50607e+00 -3.29058e+00 -1.35446e+01
       O -3.96191e+00 -1.24463e+01 -8.05357e-01
       H -4.09089e+00 -1.44585e+01 -1.19400e-01
       H -4.48914e+00 -1.27433e+01 -2.75615e+00
       O -8.27769e+00 -5.10036e+00 -7.57515e-01
       H -8.21590e+00 -6.94448e+00 -2.89935e-01
       H -8.60149e+00 -5.09557e+00 -2.36768e+00
       O -4.46161e+00 -1.21750e+01 -6.31976e+00
       H -5.75777e+00 -1.11434e+01 -6.91442e+00
       H -2.61397e+00 -1.12141e+01 -6.59190e+00
       O  8.23195e+00 -4.81825e+00 -6.28363e+00
       H  6.78796e+00 -3.51079e+00 -6.72536e+00
       H -7.22227e+00 -4.00373e+00 -6.95600e+00
       O  8.26871e+00 -9.60688e+00 -7.61936e+00
       H  8.31813e+00 -9.58768e+00 -9.43925e+00
       H  8.26514e+00 -7.93804e+00 -7.19040e+00
       O -4.55338e+00 -2.12474e+00 -7.71451e+00
       H -4.25336e+00 -2.18807e+00 -9.30830e+00
       H -4.97165e+00 -3.72193e-01 -7.02390e+00
       O -8.21727e+00 -9.85612e+00  6.91013e-01
       H  7.25769e+00 -1.11629e+01  1.99673e-01
       H -6.90635e+00 -1.09347e+01  3.46018e-01
       O -3.92658e+00 -2.55679e+00  7.11749e-01
       H -5.41120e+00 -3.60894e+00  4.93609e-01
       H -2.67951e+00 -3.85003e+00  8.38696e-03
       O -3.96051e+00 -1.25410e+01  1.31196e+01
       H -4.01141e+00 -1.45501e+01  1.36335e+01
       H -4.27609e+00 -1.24879e+01  1.13393e+01
       O -8.21346e+00 -5.07010e+00  1.30562e+01
       H -7.92634e+00 -6.88803e+00  1.35231e+01
       H -8.19580e+00 -4.85691e+00  1.12158e+01
       O -4.55637e+00 -1.21271e+01  7.56139e+00
       H -6.19445e+00 -1.13298e+01  7.16040e+00
       H -3.05001e+00 -1.06127e+01  7.13776e+00
       O  8.19487e+00 -4.80742e+00  7.52605e+00
       H  6.61972e+00 -4.08847e+00  6.78542e+00
       H -7.27561e+00 -3.61047e+00  7.23210e+00
       O  8.22467e+00 -9.57274e+00  6.16503e+00
       H  8.36933e+00 -9.01284e+00  4.29663e+00
       H  8.39331e+00 -7.90286e+00  6.70036e+00
       O -4.62155e+00 -2.10847e+00  6.16580e+00
       H -4.16319e+00 -2.50286e+00  4.32275e+00
       H -4.47957e+00 -4.76220e-01  6.80095e+00
       O -8.25368e+00  4.71776e+00 -1.32826e+01
       H  7.23425e+00  3.76710e+00 -1.35842e+01
       H -6.43769e+00  3.62732e+00 -1.36421e+01
       O -3.93763e+00  1.21457e+01 -1.32064e+01
       H -5.44191e+00  1.16073e+01 -1.38185e+01
       H -2.44975e+00  1.12409e+01 -1.35091e+01
       O -4.04910e+00  2.18041e+00 -8.51476e-01
       H -4.08635e+00  3.58657e-01 -2.72422e-02
       H -4.00078e+00  2.49019e+00 -2.64527e+00
       O -8.21072e+00  9.50885e+00 -8.18189e-01
       H -7.90656e+00  7.44938e+00 -3.27172e-01
       H -8.09162e+00  9.52877e+00 -2.70034e+00
       O -4.55270e+00  2.47314e+00 -6.20653e+00
       H -6.25020e+00  3.61538e+00 -6.51676e+00
       H -3.06765e+00  3.86463e+00 -6.21809e+00
       O  8.13581e+00  9.91781e+00 -6.21850e+00
       H  6.82852e+00  1.09511e+01 -6.34516e+00
       H -7.15860e+00  1.10035e+01 -6.37704e+00
       O  8.14028e+00  5.16952e+00 -7.67616e+00
       H  8.30051e+00  5.18638e+00 -9.26292e+00
       H  7.98522e+00  7.40293e+00 -7.33806e+00
       O -4.62488e+00  1.25586e+01 -7.69020e+00
       H -4.42128e+00  1.27221e+01 -9.72833e+00
       H -4.51766e+00  1.48262e+01 -7.31556e+00
       O -8.16852e+00  4.67197e+00  6.39446e-01
       H  7.24950e+00  3.88192e+00  7.24828e-02
       H -6.58680e+00  3.77173e+00  6.75602e-01
       O -3.99113e+00  1.21729e+01  5.98657e-01
       H -5.43823e+00  1.09379e+01 -1.15574e-02
       H -2.08125e+00  1.11799e+01  4.92428e-01
       O -3.93667e+00  2.20887e+00  1.30980e+01
       H -4.05048e+00  5.21880e-01  1.33109e+01
       H -4.22227e+00  2.33694e+00  1.12710e+01
       O -8.21035e+00  9.45759e+00  1.31000e+01
       H -8.27339e+00  7.34050e+00  1.32897e+01
       H -8.37344e+00  9.52088e+00  1.13492e+01
       O -4.46421e+00  2.58902e+00  7.50462e+00
       H -6.11211e+00  3.62628e+00  7.01261e+00
       H -3.13660e+00  3.46552e+00  6.71399e+00
       O  8.10164e+00  1.00310e+01  7.67805e+00
       H  6.92106e+00  1.08592e+01  6.90113e+00
       H -7.09631e+00  1.07816e+01  7.46518e+00
       O  8.24416e+00  5.15796e+00  6.18704e+00
       H  8.64013e+00  5.33905e+00  4.46463e+00
       H  7.90820e+00  6.74850e+00  6.96919e+00
       O -4.52320e+00  1.25059e+01  6.06962e+00
       H -4.20425e+00  1.28496e+01  4.31674e+00
       H -4.33502e+00  1.41469e+01  6.69854e+00
       O  3.33963e-01 -9.95493e+00 -1.32547e+01
       H -1.26160e+00 -1.12589e+01 -1.39371e+01
       H  1.93219e+00 -1.08568e+01 -1.31417e+01
       O  4.59270e+00 -2.63937e+00 -1.31267e+01
       H  3.13501e+00 -3.95227e+00 -1.38989e+01
       H  6.15844e+00 -3.77338e+00 -1.36571e+01
       O  4.52709e+00 -1.25904e+01 -7.73271e-01
       H  4.76903e+00 -1.44485e+01 -3.81735e-01
       H  4.44486e+00 -1.23679e+01 -2.58304e+00
       O  3.00034e-01 -5.19323e+00 -8.06207e-01
       H  2.36408e-01 -7.17956e+00 -5.25319e-01
       H  3.49764e-01 -5.07737e+00 -2.57800e+00
       O  4.00182e+00 -1.23004e+01 -6.10819e+00
       H  2.32379e+00 -1.11564e+01 -6.65604e+00
       H  5.54613e+00 -1.11637e+01 -6.85367e+00
       O -3.17554e-01 -4.78424e+00 -6.33543e+00
       H -1.96407e+00 -3.76091e+00 -6.74253e+00
       H  1.08052e+00 -3.74187e+00 -7.04884e+00
       O -3.00702e-01 -9.57133e+00 -7.71323e+00
       H -2.86043e-01 -9.48644e+00 -9.57798e+00
       H -3.27977e-01 -7.60926e+00 -7.06887e+00
       O  4.01562e+00 -2.23558e+00 -7.72202e+00
       H  4.17600e+00 -1.99147e+00 -9.56535e+00
       H  3.88810e+00 -2.37239e-01 -7.05326e+00
       O  2.53440e-01 -9.88590e+00  5.97455e-01
       H -1.04862e+00 -1.13577e+01  2.36853e-01
       H  1.80144e+00 -1.09321e+01  4.50915e-01
       O  4.53149e+00 -2.61204e+00  5.92558e-01
       H  3.23463e+00 -3.71241e+00  2.76338e-01
       H  6.13089e+00 -3.45296e+00  1.75726e-01
       O  4.57066e+00 -1.24987e+01  1.30966e+01
       H  4.48160e+00 -1.43410e+01  1.33601e+01
       H  4.44673e+00 -1.27340e+01  1.12202e+01
       O  1.53356e-01 -5.18062e+00  1.30364e+01
       H  1.92879e-01 -7.04111e+00  1.38614e+01
       H  5.42868e-01 -5.27311e+00  1.12767e+01
       O  3.80972e+00 -1.21631e+01  7.66344e+00
       H  2.38804e+00 -1.09941e+01  7.11732e+00
       H  5.45055e+00 -1.12504e+01  6.97367e+00
       O -2.15577e-01 -4.85249e+00  7.61647e+00
       H -1.92653e+00 -4.13059e+00  7.31954e+00
       H  1.08446e+00 -3.69938e+00  7.22182e+00
       O -3.09606e-01 -9.58857e+00  6.20495e+00
       H -4.23036e-01 -9.44728e+00  4.45709e+00
       H -3.69582e-01 -7.89473e+00  6.60689e+00
       O  3.93463e+00 -2.16743e+00  6.15299e+00
       H  4.14292e+00 -2.27010e+00  4.35564e+00
       H  4.13648e+00 -2.33174e-01  6.43458e+00
       O  3.01701e-01  4.78721e+00 -1.30847e+01
       H -1.07389e+00  3.99995e+00 -1.40107e+01
       H  1.70627e+00  3.67877e+00 -1.38407e+01
       O  4.54379e+00  1.21645e+01 -1.32129e+01
       H  3.19305e+00  1.10088e+01 -1.34812e+01
       H  6.13200e+00  1.10063e+01 -1.34973e+01
       O  4.52931e+00  2.22420e+00 -8.12877e-01
       H  4.83560e+00  3.63190e-01 -1.73498e-01
       H  4.14624e+00  2.14928e+00 -2.71378e+00
       O  2.44738e-01  9.47836e+00 -6.42399e-01
       H  4.03452e-01  7.74341e+00  1.17977e-01
       H  7.91312e-02  9.26696e+00 -2.66983e+00
       O  3.98812e+00  2.55731e+00 -6.16357e+00
       H  2.51118e+00  3.57373e+00 -6.86529e+00
       H  5.54404e+00  3.34173e+00 -6.72166e+00
       O -3.14707e-01  9.85811e+00 -6.34985e+00
       H -1.88417e+00  1.07885e+01 -6.73380e+00
       H  1.18275e+00  1.10261e+01 -6.74953e+00
       O -2.44561e-01  5.18797e+00 -7.60836e+00
       H  1.56097e-01  4.98345e+00 -9.64899e+00
       H -8.73191e-02  6.96000e+00 -7.10317e+00
       O  3.94644e+00  1.25773e+01 -7.77703e+00
       H  4.55825e+00  1.25705e+01 -9.54528e+00
       H  3.83814e+00  1.41070e+01 -6.84759e+00
       O  2.43675e-01  4.70397e+00  6.74870e-01
       H -8.65825e-01  3.65529e+00  7.78235e-02
       H  1.65934e+00  3.53363e+00  3.39260e-01
       O  4.55242e+00  1.21708e+01  7.33650e-01
       H  3.20431e+00  1.12948e+01  1.59299e-01
       H  5.74292e+00  1.09911e+01  2.90644e-01
       O  4.56746e+00  2.17693e+00  1.30365e+01
       H  4.58554e+00 -4.81213e-02  1.36194e+01
       H  4.42950e+00  2.05913e+00  1.10651e+01
       O  2.81619e-01  9.56734e+00  1.30258e+01
       H  3.14851e-01  7.84013e+00  1.36683e+01
       H  4.61475e-03  9.16366e+00  1.15068e+01
       O  3.95378e+00  2.52179e+00  7.60302e+00
       H  2.33279e+00  3.23852e+00  7.36987e+00
       H  5.35278e+00  3.76542e+00  7.38351e+00
       O -4.16407e-01  9.93470e+00  7.60011e+00
       H -1.90400e+00  1.11890e+01  7.43461e+00
       H  1.40632e+00  1.08367e+01  7.40406e+00
       O -3.00818e-01  5.19376e+00  6.12109e+00
       H -6.06256e-02  5.24535e+00  4.22677e+00
       H -2.85377e-01  7.06668e+00  6.52948e+00
       O  4.02253e+00  1.25036e+01  6.13794e+00
       H  3.95656e+00  1.27864e+01  4.17664e+00
       H  3.96127e+00  1.44246e+01  7.10350e+00
192
# CELL(abcABC):   16.99620    29.43815    27.67315    90.00000    90.00000    90.00000  Step:          30  Bead:      18 positions{atomic_unit}  cell{atomic_unit}
       O -8.19428e+00 -1.00097e+01 -1.30328e+01
       H  6.92494e+00 -1.08285e+01 -1.34503e+01
       H -6.56864e+00 -1.10991e+01 -1.39028e+01
       O -3.97890e+00 -2.47450e+00 -1.31118e+01
       H -5.36532e+00 -3.54669e+00 -1.35193e+01
       H -2.43880e+00 -3.46673e+00 -1.37096e+01
       O -4.01715e+00 -1.24274e+01 -8.64852e-01
       H -4.17201e+00 -1.45415e+01 -3.05579e-02
       H -4.30800e+00 -1.25666e+01 -2.71488e+00
       O -8.21966e+00 -5.12708e+00 -7.81036e-01
       H -8.03080e+00 -7.14393e+00 -2.86239e-01
       H -8.63118e+00 -5.03879e+00 -2.54341e+00
       O -4.48227e+00 -1.21619e+01 -6.29332e+00
       H -5.75806e+00 -1.10983e+01 -6.80553e+00
       H -2.44964e+00 -1.14004e+01 -6.86965e+00
       O  8.22219e+00 -4.74788e+00 -6.31992e+00
       H  6.73349e+00 -3.77127e+00 -6.52338e+00
       H -7.06415e+00 -3.69256e+00 -7.07975e+00
       O  8.17392e+00 -9.56223e+00 -7.58702e+00
       H  8.34688e+00 -9.77459e+00 -9.27604e+00
       H  8.29413e+00 -7.51954e+00 -6.99343e+00
       O -4.49551e+00 -2.07748e+00 -7.68437e+00
       H -3.96179e+00 -1.71655e+00 -9.37938e+00
       H -5.04539e+00 -5.70578e-01 -7.01773e+00
       O -8.24932e+00 -9.85548e+00  6.23834e-01
       H  7.29303e+00 -1.08029e+01 -1.32221e-02
       H -6.58935e+00 -1.08751e+01  4.37257e-01
       O -3.85323e+00 -2.58321e+00  7.91554e-01
       H -5.51834e+00 -3.69460e+00  4.41077e-01
       H -2.70221e+00 -3.93255e+00  2.46679e-01
       O -3.93974e+00 -1.25099e+01  1.31090e+01
       H -3.93244e+00 -1.44345e+01  1.35443e+01
       H -4.29572e+00 -1.27298e+01  1.11231e+01
       O -8.21878e+00 -5.16590e+00  1.30610e+01
       H -8.04222e+00 -6.92589e+00  1.35538e+01