192
# CELL(abcABC):   16.99620    29.43815    27.67315    90.00000    90.00000    90.00000  Step:           0  Bead:       3 positions{atomic_unit}  cell{atomic_unit}
       O -8.22215e+00 -9.94239e+00 -1.31733e+01
       H  7.30664e+00 -1.09711e+01 -1.36322e+01
       H -6.70615e+00 -1.09482e+01 -1.35006e+01
       O -3.97298e+00 -2.58228e+00 -1.31734e+01
       H -5.44033e+00 -3.61131e+00 -1.36317e+01
       H -2.45697e+00 -3.58820e+00 -1.35005e+01
       O -3.95756e+00 -1.25543e+01 -7.82386e-01
       H -3.95604e+00 -1.43515e+01 -2.29143e-01
       H -4.14759e+00 -1.25671e+01 -2.59983e+00
       O -8.20667e+00 -5.19495e+00 -7.82227e-01
       H -8.20527e+00 -6.99211e+00 -2.28860e-01
       H -8.39642e+00 -5.20788e+00 -2.59970e+00
       O -4.52495e+00 -1.21366e+01 -6.25523e+00
       H -6.04104e+00 -1.11308e+01 -6.58223e+00
       H -3.05766e+00 -1.11077e+01 -6.71383e+00
       O  8.22247e+00 -4.77716e+00 -6.25561e+00
       H  6.70639e+00 -3.77128e+00 -6.58235e+00
       H -7.30644e+00 -3.74813e+00 -6.71411e+00
       O  8.20650e+00 -9.52435e+00 -7.70064e+00
       H  8.39647e+00 -9.51190e+00 -9.51809e+00
       H  8.20529e+00 -7.72704e+00 -7.14768e+00
       O -4.54027e+00 -2.16431e+00 -7.70075e+00
       H -4.35006e+00 -2.15153e+00 -9.51816e+00
       H -4.54166e+00 -3.67089e-01 -7.14744e+00
       O -8.22211e+00 -9.94193e+00  6.63469e-01
       H  7.30672e+00 -1.09707e+01  2.04633e-01
       H -6.70609e+00 -1.09478e+01  3.36365e-01
       O -3.97290e+00 -2.58257e+00  6.63081e-01
       H -5.44032e+00 -3.61148e+00  2.04655e-01
       H -2.45688e+00 -3.58848e+00  3.35971e-01
       O -3.95760e+00 -1.25545e+01  1.30538e+01
       H -3.95614e+00 -1.43517e+01  1.36071e+01
       H -4.14757e+00 -1.25673e+01  1.12363e+01
       O -8.20656e+00 -5.19529e+00  1.30545e+01
       H -8.20517e+00 -6.99250e+00  1.36078e+01
       H -8.39634e+00 -5.20824e+00  1.12370e+01
       O -4.52490e+00 -1.21367e+01  7.58138e+00
       H -6.04102e+00 -1.11309e+01  7.25435e+00
       H -3.05757e+00 -1.11078e+01  7.12272e+00
       O  8.22232e+00 -4.77760e+00  7.58065e+00
       H  6.70627e+00 -3.77169e+00  7.25392e+00
       H -7.30657e+00 -3.74862e+00  7.12211e+00
       O  8.20656e+00 -9.52478e+00  6.13597e+00
       H  8.39651e+00 -9.51229e+00  4.31849e+00
       H  8.20527e+00 -7.72747e+00  6.68889e+00
       O -4.54025e+00 -2.16471e+00  6.13560e+00
       H -4.34999e+00 -2.15183e+00  4.31818e+00
       H -4.54168e+00 -3.67533e-01  6.68897e+00
       O -8.22212e+00  4.77724e+00 -1.31733e+01
       H  7.30671e+00  3.74833e+00 -1.36320e+01
       H -6.70607e+00  3.77135e+00 -1.35002e+01
       O -3.97288e+00  1.21369e+01 -1.31734e+01
       H -5.44030e+00  1.11079e+01 -1.36317e+01
       H -2.45689e+00  1.11310e+01 -1.35006e+01
       O -3.95757e+00  2.16435e+00 -7.82368e-01
       H -3.95607e+00  3.67109e-01 -2.29207e-01
       H -4.14756e+00  2.15166e+00 -2.59983e+00
       O -8.20667e+00  9.52420e+00 -7.81868e-01
       H -8.20527e+00  7.72699e+00 -2.28645e-01
       H -8.39652e+00  9.51128e+00 -2.59932e+00
       O -4.52494e+00  2.58246e+00 -6.25501e+00
       H -6.04100e+00  3.58821e+00 -6.58223e+00
       H -3.05758e+00  3.61139e+00 -6.71360e+00
       O  8.22236e+00  9.94146e+00 -6.25587e+00
       H  6.70631e+00  1.09474e+01 -6.58279e+00
       H -7.30653e+00  1.09705e+01 -6.71435e+00
       O  8.20665e+00  5.19438e+00 -7.70097e+00
       H  8.39659e+00  5.20693e+00 -9.51844e+00
       H  8.20533e+00  6.99167e+00 -7.14797e+00
       O -4.54026e+00  1.25545e+01 -7.70081e+00
       H -4.34992e+00  1.25674e+01 -9.51823e+00
       H -4.54169e+00  1.43517e+01 -7.14749e+00
       O -8.22210e+00  4.77691e+00  6.62996e-01
       H  7.30665e+00  3.74808e+00  2.04431e-01
       H -6.70613e+00  3.77091e+00  3.36028e-01
       O -3.97279e+00  1.21369e+01  6.63306e-01
       H -5.44019e+00  1.11079e+01  2.05006e-01
       H -2.45681e+00  1.11309e+01  3.36133e-01
       O -3.95757e+00  2.16479e+00  1.30545e+01
       H -3.95616e+00  3.67575e-01  1.36077e+01
       H -4.14769e+00  2.15200e+00  1.12370e+01
       O -8.20659e+00  9.52434e+00  1.30546e+01
       H -8.20522e+00  7.72713e+00  1.36079e+01
       H -8.39644e+00  9.51145e+00  1.12371e+01
       O -4.52499e+00  2.58228e+00  7.58148e+00
       H -6.04100e+00  3.58814e+00  7.25437e+00
       H -3.05766e+00  3.61126e+00  7.12297e+00
       O  8.22229e+00  9.94203e+00  7.58108e+00
       H  6.70627e+00  1.09480e+01  7.25419e+00
       H -7.30655e+00  1.09710e+01  7.12260e+00
       O  8.20668e+00  5.19493e+00  6.13567e+00
       H  8.39670e+00  5.20749e+00  4.31823e+00
       H  8.20535e+00  6.99219e+00  6.68874e+00
       O -4.54018e+00  1.25546e+01  6.13603e+00
       H -4.34989e+00  1.25674e+01  4.31861e+00
       H -4.54161e+00  1.43518e+01  6.68925e+00
       O  2.75877e-01 -9.94198e+00 -1.31737e+01
       H -1.19147e+00 -1.09709e+01 -1.36323e+01
       H  1.79191e+00 -1.09478e+01 -1.35009e+01
       O  4.52479e+00 -2.58220e+00 -1.31736e+01
       H  3.05750e+00 -3.61120e+00 -1.36322e+01
       H  6.04084e+00 -3.58815e+00 -1.35003e+01
       O  4.54038e+00 -1.25538e+01 -7.82378e-01
       H  4.54166e+00 -1.43510e+01 -2.29173e-01
       H  4.35042e+00 -1.25666e+01 -2.59983e+00
       O  2.91382e-01 -5.19489e+00 -7.82498e-01
       H  2.92775e-01 -6.99208e+00 -2.29179e-01
       H  1.01240e-01 -5.20770e+00 -2.59994e+00
       O  3.97307e+00 -1.21369e+01 -6.25482e+00
       H  2.45707e+00 -1.11310e+01 -6.58187e+00
       H  5.44043e+00 -1.11080e+01 -6.71350e+00
       O -2.76167e-01 -4.77714e+00 -6.25484e+00
       H -1.79215e+00 -3.77120e+00 -6.58193e+00
       H  1.19122e+00 -3.74822e+00 -6.71327e+00
       O -2.91294e-01 -9.52406e+00 -7.70061e+00
       H -1.01153e-01 -9.51128e+00 -9.51804e+00
       H -2.92737e-01 -7.72684e+00 -7.14734e+00
       O  3.95740e+00 -2.16468e+00 -7.70029e+00
       H  4.14711e+00 -2.15178e+00 -9.51779e+00
       H  3.95613e+00 -3.67477e-01 -7.14700e+00
       O  2.75838e-01 -9.94166e+00  6.63265e-01
       H -1.19143e+00 -1.09706e+01  2.04532e-01
       H  1.79197e+00 -1.09474e+01  3.36068e-01
       O  4.52471e+00 -2.58218e+00  6.62891e-01
       H  3.05743e+00 -3.61117e+00  2.04240e-01
       H  6.04080e+00 -3.58806e+00  3.36089e-01
       O  4.54037e+00 -1.25543e+01  1.30539e+01
       H  4.54173e+00 -1.43516e+01  1.36070e+01
       H  4.35050e+00 -1.25670e+01  1.12364e+01
       O  2.91297e-01 -5.19502e+00  1.30541e+01
       H  2.92732e-01 -6.99225e+00  1.36074e+01
       H  1.01206e-01 -5.20786e+00  1.12367e+01
       O  3.97310e+00 -1.21368e+01  7.58177e+00
       H  2.45707e+00 -1.11309e+01  7.25464e+00
       H  5.44051e+00 -1.11080e+01  7.12302e+00
       O -2.76100e-01 -4.77767e+00  7.58136e+00
       H -1.79210e+00 -3.77177e+00  7.25428e+00
       H  1.19125e+00 -3.74871e+00  7.12290e+00
       O -2.91340e-01 -9.52458e+00  6.13593e+00
       H -1.01282e-01 -9.51181e+00  4.31852e+00
       H -2.92762e-01 -7.72734e+00  6.68916e+00
       O  3.95728e+00 -2.16475e+00  6.13602e+00
       H  4.14704e+00 -2.15175e+00  4.31853e+00
       H  3.95603e+00 -3.67615e-01  6.68942e+00
       O  2.75872e-01  4.77775e+00 -1.31735e+01
       H -1.19145e+00  3.74868e+00 -1.36320e+01
       H  1.79192e+00  3.77189e+00 -1.35005e+01
       O  4.52473e+00  1.21369e+01 -1.31737e+01
       H  3.05744e+00  1.11080e+01 -1.36325e+01
       H  6.04082e+00  1.11311e+01 -1.35004e+01
       O  4.54033e+00  2.16480e+00 -7.82502e-01
       H  4.54166e+00  3.67553e-01 -2.29384e-01
       H  4.35052e+00  2.15214e+00 -2.60000e+00
       O  2.91442e-01  9.52423e+00 -7.82681e-01
       H  2.92837e-01  7.72701e+00 -2.29452e-01
       H  1.01299e-01  9.51146e+00 -2.60013e+00
       O  3.97319e+00  2.58230e+00 -6.25496e+00
       H  2.45717e+00  3.58819e+00 -6.58198e+00
       H  5.44056e+00  3.61109e+00 -6.71379e+00
       O -2.76125e-01  9.94167e+00 -6.25515e+00
       H -1.79212e+00  1.09476e+01 -6.58222e+00
       H  1.19126e+00  1.09706e+01 -6.71377e+00
       O -2.91369e-01  5.19475e+00 -7.70046e+00
       H -1.01380e-01  5.20765e+00 -9.51793e+00
       H -2.92793e-01  6.99195e+00 -7.14718e+00
       O  3.95737e+00  1.25543e+01 -7.70076e+00
       H  4.14703e+00  1.25673e+01 -9.51824e+00
       H  3.95606e+00  1.43514e+01 -7.14726e+00
       O  2.75794e-01  4.77734e+00  6.62959e-01
       H -1.19152e+00  3.74832e+00  2.04499e-01
       H  1.79186e+00  3.77147e+00  3.35887e-01
       O  4.52464e+00  1.21373e+01  6.62988e-01
       H  3.05745e+00  1.11082e+01  2.04218e-01
       H  6.04076e+00  1.11314e+01  3.36450e-01
       O  4.54041e+00  2.16499e+00  1.30543e+01
       H  4.54178e+00  3.67749e-01  1.36074e+01
       H  4.35054e+00  2.15228e+00  1.12368e+01
       O  2.91308e-01  9.52457e+00  1.30538e+01
       H  2.92715e-01  7.72735e+00  1.36071e+01
       H  1.01225e-01  9.51181e+00  1.12363e+01
       O  3.97315e+00  2.58235e+00  7.58152e+00
       H  2.45713e+00  3.58829e+00  7.25455e+00
       H  5.44048e+00  3.61122e+00  7.12279e+00
       O -2.76008e-01  9.94202e+00  7.58171e+00
       H -1.79205e+00  1.09479e+01  7.25468e+00
       H  1.19134e+00  1.09710e+01  7.12317e+00
       O -2.91416e-01  5.19510e+00  6.13606e+00
       H -1.01371e-01  5.20795e+00  4.31863e+00
       H -2.92777e-01  6.99228e+00  6.68938e+00
       O  3.95729e+00  1.25546e+01  6.13612e+00
       H  4.14688e+00  1.25676e+01  4.31864e+00
       H  3.95603e+00  1.43518e+01  6.68952e+00
192
# CELL(abcABC):   16.99620    29.43815    27.67315    90.00000    90.00000    90.00000  Step:          10  Bead:       3 positions{atomic_unit}  cell{atomic_unit}
       O -8.16696e+00 -1.00107e+01 -1.31524e+01
       H  7.38609e+00 -1.08694e+01 -1.34749e+01
       H -6.58807e+00 -1.09833e+01 -1.36281e+01
       O -3.96783e+00 -2.54792e+00 -1.32067e+01
       H -5.53762e+00 -3.86921e+00 -1.37869e+01
       H -2.36536e+00 -3.66724e+00 -1.38297e+01
       O -3.89181e+00 -1.25734e+01 -7.92296e-01
       H -4.05294e+00 -1.44281e+01 -4.67917e-01
       H -3.91422e+00 -1.26181e+01 -2.84928e+00
       O -8.24717e+00 -5.13129e+00 -7.60413e-01
       H -8.22002e+00 -6.90351e+00 -1.78523e-01
       H -8.58623e+00 -4.95746e+00 -2.43901e+00
       O -4.52010e+00 -1.20944e+01 -6.24871e+00
       H -6.30634e+00 -1.11741e+01 -6.69836e+00
       H -2.92884e+00 -1.12738e+01 -6.73087e+00
       O  8.18760e+00 -4.71962e+00 -6.26443e+00
       H  6.63856e+00 -3.58122e+00 -6.70977e+00
       H -7.48486e+00 -3.82726e+00 -7.02026e+00
       O  8.18362e+00 -9.51309e+00 -7.70566e+00
       H  8.35988e+00 -9.29602e+00 -9.43697e+00
       H  8.15177e+00 -7.72066e+00 -7.02888e+00
       O -4.53984e+00 -2.17288e+00 -7.68858e+00
       H -4.31354e+00 -2.02314e+00 -9.51105e+00
       H -4.52465e+00 -4.21059e-01 -7.22391e+00
       O -8.25404e+00 -9.96055e+00  6.59633e-01
       H  7.15162e+00 -1.09164e+01  3.87976e-01
       H -6.79887e+00 -1.10576e+01  3.30112e-01
       O -4.01915e+00 -2.57376e+00  7.17696e-01
       H -5.35867e+00 -3.96611e+00  3.54649e-01
       H -2.45959e+00 -3.81171e+00  2.16647e-01
       O -3.93467e+00 -1.25774e+01  1.30754e+01
       H -4.23158e+00 -1.44104e+01  1.35189e+01
       H -4.05242e+00 -1.27909e+01  1.12742e+01
       O -8.23380e+00 -5.24840e+00  1.30412e+01
       H -8.33471e+00 -7.00580e+00  1.35651e+01
       H -8.16738e+00 -5.38042e+00  1.11339e+01
       O -4.48854e+00 -1.21315e+01  7.49542e+00
       H -5.96391e+00 -1.10806e+01  6.97145e+00
       H -3.10870e+00 -1.09803e+01  7.24332e+00
       O  8.30175e+00 -4.77541e+00  7.49560e+00
       H  6.96889e+00 -3.88149e+00  7.47396e+00
       H -7.13076e+00 -3.67826e+00  7.33434e+00
       O  8.15721e+00 -9.47543e+00  6.12236e+00
       H  8.39825e+00 -9.54693e+00  4.36247e+00
       H  8.10520e+00 -7.71494e+00  6.76692e+00
       O -4.54560e+00 -2.13913e+00  6.12202e+00
       H -4.06702e+00 -2.18981e+00  4.56538e+00
       H -4.30608e+00 -3.91134e-01  6.80405e+00
       O -8.19154e+00  4.72069e+00 -1.31666e+01
       H  7.13838e+00  3.70280e+00 -1.36776e+01
       H -6.68840e+00  3.95444e+00 -1.33041e+01
       O -3.99917e+00  1.21861e+01 -1.31460e+01
       H -5.33682e+00  1.10595e+01 -1.36081e+01
       H -2.69129e+00  1.11283e+01 -1.35948e+01
       O -3.92695e+00  2.11344e+00 -8.70329e-01
       H -4.34353e+00  3.43552e-01 -4.48030e-01
       H -4.17244e+00  2.11874e+00 -2.67653e+00
       O -8.18531e+00  9.53072e+00 -7.95275e-01
       H -8.17510e+00  7.70551e+00 -1.00706e-01
       H -8.42115e+00  9.49824e+00 -2.75370e+00
       O -4.51481e+00  2.59416e+00 -6.27168e+00
       H -5.99845e+00  3.67537e+00 -6.40650e+00
       H -3.17526e+00  3.45741e+00 -6.90430e+00
       O  8.17229e+00  9.95853e+00 -6.27108e+00
       H  6.59264e+00  1.08241e+01 -6.57586e+00
       H -7.25538e+00  1.08745e+01 -6.63450e+00
       O  8.24651e+00  5.22485e+00 -7.72097e+00
       H  8.18192e+00  5.48294e+00 -9.42951e+00
       H  8.21893e+00  7.16415e+00 -7.29843e+00
       O -4.58276e+00  1.25671e+01 -7.74526e+00
       H -4.42300e+00  1.23329e+01 -9.23085e+00
       H -4.37370e+00  1.43398e+01 -7.20301e+00
       O -8.26818e+00  4.74070e+00  6.86090e-01
       H  7.36003e+00  3.59960e+00  2.12930e-01
       H -6.65973e+00  3.73790e+00  2.87954e-01
       O -3.98866e+00  1.21591e+01  6.70788e-01
       H -5.45465e+00  1.09467e+01  4.17640e-01
       H -2.58128e+00  1.09032e+01  5.98616e-01
       O -3.99033e+00  2.18340e+00  1.30511e+01
       H -3.99357e+00  1.81943e-01  1.37339e+01
       H -4.31109e+00  2.27967e+00  1.11792e+01
       O -8.22688e+00  9.48324e+00  1.30751e+01
       H -8.36636e+00  7.70355e+00  1.36065e+01
       H -8.25819e+00  9.63599e+00  1.12884e+01
       O -4.54753e+00  2.60303e+00  7.62580e+00
       H -6.19940e+00  3.48140e+00  7.56327e+00
       H -3.12672e+00  3.33820e+00  6.98044e+00
       O  8.20599e+00  9.91076e+00  7.57698e+00
       H  6.63035e+00  1.08599e+01  7.28475e+00
       H -7.27474e+00  1.11839e+01  7.26539e+00
       O  8.20765e+00  5.28414e+00  6.16675e+00
       H  8.53627e+00  5.45766e+00  4.24344e+00
       H  8.44774e+00  6.96706e+00  6.65089e+00
       O -4.53424e+00  1.25750e+01  6.09650e+00
       H -4.46708e+00  1.22831e+01  4.37254e+00
       H -4.27560e+00  1.42000e+01  6.74744e+00
       O  2.78785e-01 -9.91839e+00 -1.31906e+01
       H -1.31482e+00 -1.09987e+01 -1.35779e+01
       H  1.92198e+00 -1.07353e+01 -1.33413e+01
       O  4.56417e+00 -2.55946e+00 -1.30609e+01
       H  3.15690e+00 -3.89761e+00 -1.34636e+01
       H  6.23914e+00 -3.52783e+00 -1.36673e+01
       O  4.63848e+00 -1.25941e+01 -7.31032e-01
       H  4.71526e+00 -1.42311e+01 -1.11895e-01
       H  4.12303e+00 -1.25738e+01 -2.49190e+00
       O  2.85321e-01 -5.21807e+00 -8.11285e-01
       H  4.35948e-01 -6.97591e+00 -7.93865e-02
       H -3.89193e-02 -4.95552e+00 -2.78975e+00
       O  3.96380e+00 -1.21188e+01 -6.23661e+00
       H  2.40197e+00 -1.09667e+01 -6.29267e+00
       H  5.35848e+00 -1.14581e+01 -7.04026e+00
       O -3.29368e-01 -4.81089e+00 -6.23201e+00
       H -2.05299e+00 -3.76364e+00 -6.92859e+00
       H  1.17005e+00 -3.75415e+00 -6.70193e+00
       O -3.23975e-01 -9.50610e+00 -7.67860e+00
       H -1.53145e-01 -9.72292e+00 -9.41258e+00
       H -2.52670e-01 -7.46454e+00 -7.13473e+00
       O  3.96829e+00 -2.12970e+00 -7.72234e+00
       H  4.32086e+00 -2.63563e+00 -9.56233e+00
       H  3.90721e+00 -4.71793e-01 -7.34045e+00
       O  2.77866e-01 -9.97276e+00  6.75296e-01
       H -1.01285e+00 -1.10679e+01  2.76318e-01
       H  1.68424e+00 -1.10835e+01  2.39686e-01
       O  4.55990e+00 -2.60304e+00  6.44616e-01
       H  2.86246e+00 -3.58839e+00  3.27121e-01
       H  6.14018e+00 -3.48625e+00  2.60121e-01
       O  4.57038e+00 -1.25584e+01  1.30345e+01
       H  4.29372e+00 -1.43265e+01  1.34323e+01
       H  4.17487e+00 -1.25934e+01  1.11722e+01
       O  2.92592e-01 -5.17229e+00  1.30934e+01
       H  2.11465e-01 -7.05415e+00  1.36890e+01
       H  1.56638e-01 -5.26066e+00  1.13042e+01
       O  3.96610e+00 -1.20979e+01  7.52996e+00
       H  2.58067e+00 -1.10190e+01  7.43320e+00
       H  5.22280e+00 -1.10061e+01  7.31264e+00
       O -2.51665e-01 -4.82402e+00  7.52968e+00
       H -1.79720e+00 -3.73911e+00  7.18093e+00
       H  1.21734e+00 -3.60247e+00  6.85916e+00
       O -2.94594e-01 -9.44813e+00  6.12566e+00
       H -8.87747e-02 -9.51372e+00  4.28230e+00
       H -3.29796e-01 -7.73428e+00  6.52083e+00
       O  3.97299e+00 -2.17790e+00  6.09177e+00
       H  4.21863e+00 -1.83469e+00  4.22235e+00
       H  4.08308e+00 -3.02768e-01  6.62477e+00
       O  2.31408e-01  4.74699e+00 -1.31076e+01
       H -1.21905e+00  4.03819e+00 -1.38703e+01
       H  1.73098e+00  3.75039e+00 -1.36607e+01
       O  4.51077e+00  1.21002e+01 -1.31846e+01
       H  3.11446e+00  1.10357e+01 -1.39327e+01
       H  6.09015e+00  1.10863e+01 -1.36752e+01
       O  4.50410e+00  2.16474e+00 -7.58160e-01
       H  4.46446e+00  3.56048e-01 -2.44357e-01
       H  4.32291e+00  2.30635e+00 -2.48899e+00
       O  3.32834e-01  9.44040e+00 -7.98138e-01
       H  4.13638e-01  7.68513e+00  1.23081e-02
       H  9.32281e-02  9.34482e+00 -2.52406e+00
       O  3.90995e+00  2.64573e+00 -6.21837e+00
       H  2.39662e+00  3.54592e+00 -6.58791e+00
       H  5.39971e+00  3.64499e+00 -6.23103e+00
       O -2.82511e-01  9.90339e+00 -6.32027e+00
       H -1.68658e+00  1.07918e+01 -6.68021e+00
       H  1.33498e+00  1.08343e+01 -6.93694e+00
       O -3.06470e-01  5.21555e+00 -7.72623e+00
       H -4.77665e-02  5.45286e+00 -9.66835e+00
       H -9.78885e-02  6.96625e+00 -7.10057e+00
       O  3.93719e+00  1.25867e+01 -7.74134e+00
       H  3.95163e+00  1.26024e+01 -9.48238e+00
       H  3.77132e+00  1.43813e+01 -7.24245e+00
       O  2.49715e-01  4.77907e+00  6.45123e-01
       H -1.01691e+00  3.74515e+00  1.27273e-01
       H  1.89873e+00  3.58977e+00  3.97839e-01
       O  4.48528e+00  1.21180e+01  6.38511e-01
       H  2.92253e+00  1.12106e+01  2.54292e-01
       H  6.24113e+00  1.10320e+01  3.34204e-01
       O  4.53919e+00  2.23048e+00  1.30446e+01
       H  4.55588e+00  4.21531e-01  1.37496e+01
       H  4.51064e+00  2.24150e+00  1.13331e+01
       O  3.02245e-01  9.46536e+00  1.29310e+01
       H  1.30389e-01  7.75915e+00  1.37064e+01
       H -9.64423e-02  9.49367e+00  1.12889e+01
       O  3.97089e+00  2.62372e+00  7.58474e+00
       H  2.57031e+00  3.29063e+00  7.21562e+00
       H  5.41339e+00  3.59534e+00  7.19922e+00
       O -2.33314e-01  9.95568e+00  7.70250e+00
       H -1.64460e+00  1.09375e+01  7.50654e+00
       H  9.37868e-01  1.11003e+01  6.90892e+00
       O -2.63948e-01  5.22017e+00  6.10461e+00
       H -1.67120e-01  5.27165e+00  4.21487e+00
       H -1.97083e-02  6.86652e+00  6.68228e+00
       O  3.99192e+00  1.25466e+01  6.13518e+00
       H  4.16109e+00  1.27449e+01  4.16814e+00
       H  4.05390e+00  1.41631e+01  6.44704e+00
192
# CELL(abcABC):   16.99620    29.43815    27.67315    90.00000    90.00000    90.00000  Step:          20  Bead:       3 positions{atomic_unit}  cell{atomic_unit}
       O -8.17674e+00 -9.99491e+00 -1.31186e+01
       H  7.19345e+00 -1.09751e+01 -1.35908e+01
       H -6.62100e+00 -1.09523e+01 -1.38975e+01
       O -3.91202e+00 -2.61154e+00 -1.31798e+01
       H -5.30380e+00 -3.76058e+00 -1.39685e+01
       H -2.17790e+00 -3.78134e+00 -1.34827e+01
       O -3.90436e+00 -1.26100e+01 -8.23063e-01
       H -4.21415e+00 -1.42915e+01 -4.41289e-01
       H -4.12470e+00 -1.22520e+01 -2.57023e+00
       O -8.18099e+00 -5.14804e+00 -7.32654e-01
       H -8.43354e+00 -7.10038e+00 -6.65559e-02
       H -9.06763e+00 -5.07795e+00 -2.59382e+00
       O -4.47170e+00 -1.20722e+01 -6.22954e+00
       H -6.04057e+00 -1.11524e+01 -6.67513e+00
       H -2.77600e+00 -1.13713e+01 -6.86834e+00
       O  8.15856e+00 -4.70898e+00 -6.29580e+00
       H  6.69185e+00 -3.47651e+00 -6.75145e+00
       H -7.73833e+00 -3.70039e+00 -6.62059e+00
       O  8.28967e+00 -9.48000e+00 -7.71893e+00
       H  8.14530e+00 -9.14093e+00 -9.53112e+00
       H  7.70687e+00 -7.74758e+00 -7.11223e+00
       O -4.51698e+00 -2.22175e+00 -7.61919e+00
       H -4.37137e+00 -2.20717e+00 -9.38236e+00
       H -4.67896e+00 -4.04414e-01 -7.06269e+00
       O -8.32719e+00 -9.95190e+00  6.16118e-01
       H  7.00299e+00 -1.11852e+01  2.72213e-01
       H -6.82334e+00 -1.10224e+01  1.76250e-01
       O -3.92462e+00 -2.60117e+00  7.34958e-01
       H -5.36157e+00 -3.73595e+00  4.53127e-01
       H -2.67073e+00 -4.06873e+00  5.60879e-01
       O -3.93354e+00 -1.25531e+01  1.30846e+01
       H -4.33543e+00 -1.42804e+01  1.36713e+01
       H -4.04813e+00 -1.26914e+01  1.12810e+01
       O -8.22608e+00 -5.23228e+00  1.30003e+01
       H -8.14112e+00 -7.29961e+00  1.34164e+01
       H -7.98536e+00 -5.22427e+00  1.10870e+01
       O -4.47979e+00 -1.21411e+01  7.54280e+00
       H -5.94163e+00 -1.10307e+01  7.06934e+00
       H -3.00590e+00 -1.08753e+01  7.56249e+00
       O  8.24921e+00 -4.79623e+00  7.47258e+00
       H  7.02355e+00 -3.62099e+00  7.72666e+00
       H -7.21219e+00 -3.70816e+00  7.00713e+00
       O  8.10827e+00 -9.44179e+00  6.11303e+00
       H  8.10570e+00 -9.42936e+00  4.13402e+00
       H  8.24129e+00 -7.77095e+00  6.81909e+00
       O -4.59619e+00 -2.15586e+00  6.19541e+00
       H -4.32105e+00 -2.09221e+00  4.54961e+00
       H -4.43391e+00 -3.83570e-01  7.12632e+00
       O -8.16713e+00  4.77905e+00 -1.32214e+01
       H  7.42582e+00  3.55469e+00 -1.34362e+01
       H -6.59767e+00  3.84754e+00 -1.34722e+01
       O -3.98491e+00  1.22422e+01 -1.31885e+01
       H -5.55280e+00  1.10564e+01 -1.33743e+01
       H -2.44175e+00  1.11732e+01 -1.34170e+01
       O -3.90442e+00  2.11393e+00 -8.62040e-01
       H -4.46651e+00  1.69357e-01 -5.25051e-01
       H -4.16438e+00  2.03155e+00 -2.69893e+00
       O -8.21625e+00  9.51474e+00 -8.40305e-01
       H -8.31479e+00  7.88053e+00  2.23757e-02
       H -8.37387e+00  9.68547e+00 -2.52989e+00
       O -4.56823e+00  2.53120e+00 -6.19510e+00
       H -5.99287e+00  3.61968e+00 -6.41334e+00
       H -3.27071e+00  3.60302e+00 -7.03530e+00
       O  8.19521e+00  9.97509e+00 -6.26429e+00
       H  6.33398e+00  1.09267e+01 -6.54512e+00
       H -7.41643e+00  1.09837e+01 -6.77917e+00
       O  8.28526e+00  5.28019e+00 -7.65894e+00
       H  8.00850e+00  5.31443e+00 -9.47235e+00
       H  8.10238e+00  7.03686e+00 -7.37673e+00
       O -4.57877e+00  1.25715e+01 -7.70902e+00
       H -4.71279e+00  1.25517e+01 -9.56868e+00
       H -4.56973e+00  1.45482e+01 -7.23464e+00
       O -8.37978e+00  4.78866e+00  7.23665e-01
       H  7.19593e+00  3.61399e+00  5.92427e-02
       H -7.03994e+00  3.48470e+00  2.96456e-01
       O -4.00829e+00  1.20400e+01  6.37514e-01
       H -5.69627e+00  1.10892e+01  7.04159e-01
       H -2.57388e+00  1.10313e+01  5.96917e-01
       O -4.00970e+00  2.04161e+00  1.29842e+01
       H -3.88752e+00  1.86357e-01  1.36408e+01
       H -4.48402e+00  2.45461e+00  1.11321e+01
       O -8.21672e+00  9.46447e+00  1.30915e+01
       H -8.24094e+00  7.70011e+00  1.35001e+01
       H -8.29694e+00  9.77812e+00  1.09731e+01
       O -4.49698e+00  2.55894e+00  7.61165e+00
       H -6.28210e+00  3.62353e+00  7.19210e+00
       H -3.08953e+00  3.37881e+00  7.00184e+00
       O  8.21873e+00  9.89321e+00  7.55489e+00
       H  6.57747e+00  1.12010e+01  7.40184e+00
       H -7.32609e+00  1.10627e+01  7.16088e+00
       O  8.13446e+00  5.19178e+00  6.14843e+00
       H  8.54616e+00  5.46336e+00  4.19877e+00
       H  8.39407e+00  6.96394e+00  6.82207e+00
       O -4.55370e+00  1.25936e+01  6.12390e+00
       H -4.56071e+00  1.21846e+01  4.27915e+00
       H -4.41769e+00  1.43007e+01  6.87002e+00
       O  3.57384e-01 -9.87850e+00 -1.32353e+01
       H -1.44540e+00 -1.09390e+01 -1.34700e+01
       H  1.89274e+00 -1.10044e+01 -1.30935e+01
       O  4.57250e+00 -2.57997e+00 -1.31368e+01
       H  3.32326e+00 -3.77404e+00 -1.33977e+01
       H  6.28452e+00 -3.98006e+00 -1.37927e+01
       O  4.64966e+00 -1.26294e+01 -7.52787e-01
       H  4.50027e+00 -1.45288e+01 -2.38073e-01
       H  4.28905e+00 -1.25707e+01 -2.65741e+00
       O  2.73676e-01 -5.24963e+00 -7.89573e-01
       H  2.65678e-01 -6.99917e+00 -1.25242e-03
       H  1.65148e-01 -5.00949e+00 -2.53558e+00
       O  3.89499e+00 -1.20781e+01 -6.22545e+00
       H  2.14938e+00 -1.08099e+01 -6.20274e+00
       H  5.32006e+00 -1.14164e+01 -7.02702e+00
       O -2.80655e-01 -4.83869e+00 -6.28479e+00
       H -1.93686e+00 -3.87866e+00 -6.66013e+00
       H  1.27729e+00 -3.72714e+00 -6.80460e+00
       O -3.08772e-01 -9.57549e+00 -7.66105e+00
       H  5.03619e-03 -9.90381e+00 -9.26054e+00
       H -2.43063e-01 -7.70456e+00 -7.29740e+00
       O  3.92437e+00 -2.15002e+00 -7.75975e+00
       H  4.47223e+00 -2.87779e+00 -9.57218e+00
       H  4.45354e+00 -3.13359e-01 -7.20326e+00
       O  2.94227e-01 -9.93957e+00  7.14360e-01
       H -1.29065e+00 -1.09659e+01  2.69608e-01
       H  1.85679e+00 -1.10314e+01  2.70464e-01
       O  4.55587e+00 -2.63212e+00  6.54571e-01
       H  3.03516e+00 -3.90927e+00  4.12059e-01
       H  6.27744e+00 -3.33297e+00  2.94813e-01
       O  4.63953e+00 -1.25801e+01  1.30899e+01
       H  4.44215e+00 -1.42795e+01  1.36206e+01
       H  4.32561e+00 -1.27755e+01  1.12428e+01
       O  2.80762e-01 -5.16486e+00  1.31569e+01
       H  5.81126e-02 -7.18761e+00  1.36946e+01
       H  3.28211e-01 -5.13295e+00  1.13227e+01
       O  3.90211e+00 -1.20876e+01  7.55903e+00
       H  2.59005e+00 -1.07250e+01  7.40709e+00
       H  5.25501e+00 -1.10480e+01  7.18650e+00
       O -2.68724e-01 -4.86909e+00  7.45620e+00
       H -1.82127e+00 -3.78699e+00  7.03629e+00
       H  1.29285e+00 -3.39096e+00  7.07659e+00
       O -2.90516e-01 -9.45913e+00  6.13680e+00
       H -3.76290e-01 -9.71236e+00  4.37004e+00
       H -1.30815e-01 -7.64269e+00  6.89987e+00
       O  4.01634e+00 -2.12619e+00  6.08040e+00
       H  4.42165e+00 -1.91635e+00  4.34098e+00
       H  4.14049e+00 -3.26108e-01  6.72344e+00
       O  1.85033e-01  4.78861e+00 -1.30642e+01
       H -1.21211e+00  3.82398e+00 -1.40321e+01
       H  1.66078e+00  3.49073e+00 -1.34266e+01
       O  4.49029e+00  1.20661e+01 -1.32243e+01
       H  3.19234e+00  1.09256e+01 -1.40856e+01
       H  6.00326e+00  1.14648e+01 -1.35885e+01
       O  4.56279e+00  2.17119e+00 -7.21756e-01
       H  4.86474e+00  3.09152e-01 -1.86690e-01
       H  4.27776e+00  2.36234e+00 -2.50012e+00
       O  2.52041e-01  9.42931e+00 -8.23630e-01
       H  2.71444e-01  7.77727e+00 -1.31494e-01
       H  2.25539e-01  9.51906e+00 -2.51597e+00
       O  3.93804e+00  2.61057e+00 -6.17006e+00
       H  2.32462e+00  3.62537e+00 -6.43325e+00
       H  5.43478e+00  3.70464e+00 -6.50152e+00
       O -2.14625e-01  9.98231e+00 -6.34999e+00
       H -1.89987e+00  1.04999e+01 -6.82432e+00
       H  1.45138e+00  1.08870e+01 -6.89708e+00
       O -3.02520e-01  5.24891e+00 -7.72160e+00
       H  9.11722e-02  5.53177e+00 -9.47132e+00
       H -1.99896e-01  7.10883e+00 -6.95841e+00
       O  4.00513e+00  1.26302e+01 -7.70398e+00
       H  4.05393e+00  1.27608e+01 -9.63229e+00
       H  4.23936e+00  1.44536e+01 -7.28610e+00
       O  2.67107e-01  4.72305e+00  6.17414e-01
       H -1.33736e+00  3.63638e+00  3.46310e-02
       H  1.76851e+00  3.45812e+00  4.74825e-01
       O  4.47726e+00  1.20679e+01  7.35381e-01
       H  3.13547e+00  1.09916e+01  3.92824e-01
       H  6.12373e+00  1.12106e+01  5.64303e-01
       O  4.53813e+00  2.30771e+00  1.30780e+01
       H  4.49697e+00  4.37177e-01  1.38804e+01
       H  4.49812e+00  2.25276e+00  1.11920e+01
       O  2.85992e-01  9.46446e+00  1.28994e+01
       H  2.34808e-01  7.74775e+00  1.36584e+01
       H -1.03865e-01  9.27459e+00  1.11005e+01
       O  3.95496e+00  2.61990e+00  7.56592e+00
       H  2.10797e+00  3.44679e+00  7.24294e+00
       H  5.66170e+00  3.40934e+00  6.99915e+00
       O -2.37770e-01  9.85473e+00  7.73873e+00
       H -1.82679e+00  1.08789e+01  7.66248e+00
       H  9.63885e-01  1.08780e+01  6.79028e+00
       O -3.40394e-01  5.25169e+00  6.10011e+00
       H -1.91331e-01  5.23144e+00  4.39548e+00
       H  4.31492e-02  7.30302e+00  6.72774e+00
       O  4.00152e+00  1.26410e+01  6.08136e+00
       H  4.00545e+00  1.27779e+01  4.40754e+00
       H  3.59903e+00  1.47032e+01  6.68691e+00
192
# CELL(abcABC):   16.99620    29.43815    27.67315    90.00000    90.00000    90.00000  Step:          30  Bead:       3 positions{atomic_unit}  cell{atomic_unit}
       O -8.16698e+00 -1.00147e+01 -1.31276e+01
       H  7.38513e+00 -1.10169e+01 -1.33340e+01
       H -6.84100e+00 -1.12957e+01 -1.37284e+01
       O -3.87324e+00 -2.63964e+00 -1.31600e+01
       H -5.17652e+00 -3.57678e+00 -1.36892e+01
       H -2.30930e+00 -3.67411e+00 -1.36066e+01
       O -3.90914e+00 -1.25630e+01 -8.52007e-01
       H -3.84021e+00 -1.45285e+01 -4.30214e-01
       H -4.27286e+00 -1.22165e+01 -2.61400e+00
       O -8.25284e+00 -5.22130e+00 -8.18502e-01
       H -8.41298e+00 -7.06252e+00 -4.18363e-01
       H -8.93250e+00 -5.00008e+00 -2.54778e+00
       O -4.46786e+00 -1.20880e+01 -6.30777e+00
       H -5.97664e+00 -1.11287e+01 -6.79077e+00
       H -2.68775e+00 -1.15069e+01 -6.79070e+00
       O  8.24869e+00 -4.75225e+00 -6.31421e+00
       H  6.93020e+00 -3.32595e+00 -6.64586e+00
       H -7.26697e+00 -3.87181e+00 -6.82636e+00
       O  8.24537e+00 -9.57363e+00 -7.71534e+00
       H  8.10479e+00 -9.41517e+00 -9.61676e+00
       H  7.63895e+00 -7.93131e+00 -6.99015e+00
       O -4.54338e+00 -2.21837e+00 -7.67571e+00
       H -4.46327e+00 -2.13833e+00 -9.49989e+00
       H -4.65305e+00 -3.23221e-01 -7.28182e+00
       O -8.34130e+00 -9.91755e+00  6.04985e-01
       H  7.14828e+00 -1.09517e+01  3.66693e-01
       H -7.07967e+00 -1.08040e+01 -1.05075e-01
       O -3.97412e+00 -2.61478e+00  7.69252e-01
       H -5.29963e+00 -3.56718e+00  4.04186e-01
       H -2.58057e+00 -4.03772e+00  5.48811e-01
       O -3.96365e+00 -1.24371e+01  1.30442e+01
       H -4.00146e+00 -1.41890e+01  1.36744e+01
       H -4.38219e+00 -1.27483e+01  1.12764e+01
       O -8.15899e+00 -5.23179e+00  1.29939e+01
       H -7.97837e+00 -7.05462e+00  1.32004e+01