192
# CELL(abcABC):   16.99620    29.43815    27.67315    90.00000    90.00000    90.00000  Step:           0  Bead:      17 positions{atomic_unit}  cell{atomic_unit}
       O -8.21943e+00 -9.93714e+00 -1.31733e+01
       H  7.30975e+00 -1.09659e+01 -1.36333e+01
       H -6.70309e+00 -1.09427e+01 -1.35003e+01
       O -3.97045e+00 -2.57760e+00 -1.31733e+01
       H -5.43740e+00 -3.60640e+00 -1.36335e+01
       H -2.45410e+00 -3.58307e+00 -1.35002e+01
       O -3.95479e+00 -1.25494e+01 -7.82537e-01
       H -3.95303e+00 -1.43463e+01 -2.27998e-01
       H -4.14654e+00 -1.25640e+01 -2.59980e+00
       O -8.20381e+00 -5.18980e+00 -7.82573e-01
       H -8.20206e+00 -6.98662e+00 -2.28079e-01
       H -8.39554e+00 -5.20430e+00 -2.59985e+00
       O -4.52774e+00 -1.21415e+01 -6.25501e+00
       H -6.04401e+00 -1.11359e+01 -6.58198e+00
       H -3.06070e+00 -1.11128e+01 -6.71509e+00
       O  8.21948e+00 -4.78197e+00 -6.25503e+00
       H  6.70316e+00 -3.77646e+00 -6.58191e+00
       H -7.30970e+00 -3.75321e+00 -6.71514e+00
       O  8.20373e+00 -9.52922e+00 -7.70081e+00
       H  8.39566e+00 -9.51468e+00 -9.51806e+00
       H  8.20220e+00 -7.73240e+00 -7.14624e+00
       O -4.54345e+00 -2.16975e+00 -7.70084e+00
       H -4.35162e+00 -2.15526e+00 -9.51812e+00
       H -4.54503e+00 -3.72917e-01 -7.14634e+00
       O -8.21943e+00 -9.93697e+00  6.63195e-01
       H  7.30977e+00 -1.09657e+01  2.03202e-01
       H -6.70308e+00 -1.09425e+01  3.36227e-01
       O -3.97044e+00 -2.57760e+00  6.63173e-01
       H -5.43747e+00 -3.60635e+00  2.03069e-01
       H -2.45410e+00 -3.58312e+00  3.36346e-01
       O -3.95472e+00 -1.25494e+01  1.30540e+01
       H -3.95309e+00 -1.43462e+01  1.36086e+01
       H -4.14653e+00 -1.25640e+01  1.12368e+01
       O -8.20380e+00 -5.18990e+00  1.30541e+01
       H -8.20202e+00 -6.98672e+00  1.36085e+01
       H -8.39553e+00 -5.20434e+00  1.12368e+01
       O -4.52771e+00 -1.21415e+01  7.58159e+00
       H -6.04402e+00 -1.11360e+01  7.25460e+00
       H -3.06070e+00 -1.11128e+01  7.12152e+00
       O  8.21944e+00 -4.78191e+00  7.58149e+00
       H  6.70312e+00 -3.77633e+00  7.25453e+00
       H -7.30974e+00 -3.75322e+00  7.12139e+00
       O  8.20378e+00 -9.52926e+00  6.13582e+00
       H  8.39564e+00 -9.51474e+00  4.31856e+00
       H  8.20221e+00 -7.73246e+00  6.69037e+00
       O -4.54344e+00 -2.16971e+00  6.13568e+00
       H -4.35161e+00 -2.15522e+00  4.31840e+00
       H -4.54506e+00 -3.72896e-01  6.69017e+00
       O -8.21947e+00  4.78210e+00 -1.31734e+01
       H  7.30974e+00  3.75335e+00 -1.36334e+01
       H -6.70314e+00  3.77651e+00 -1.35002e+01
       O -3.97046e+00  1.21415e+01 -1.31733e+01
       H -5.43745e+00  1.11127e+01 -1.36334e+01
       H -2.45410e+00  1.11360e+01 -1.35002e+01
       O -3.95479e+00  2.16971e+00 -7.82462e-01
       H -3.95303e+00  3.72884e-01 -2.27933e-01
       H -4.14646e+00  2.15509e+00 -2.59975e+00
       O -8.20376e+00  9.52923e+00 -7.82499e-01
       H -8.20200e+00  7.73238e+00 -2.27998e-01
       H -8.39546e+00  9.51472e+00 -2.59977e+00
       O -4.52774e+00  2.57749e+00 -6.25512e+00
       H -6.04400e+00  3.58312e+00 -6.58197e+00
       H -3.06066e+00  3.60618e+00 -6.71512e+00
       O  8.21949e+00  9.93715e+00 -6.25509e+00
       H  6.70318e+00  1.09426e+01 -6.58202e+00
       H -7.30970e+00  1.09659e+01 -6.71526e+00
       O  8.20366e+00  5.18988e+00 -7.70077e+00
       H  8.39552e+00  5.20437e+00 -9.51803e+00
       H  8.20217e+00  6.98669e+00 -7.14625e+00
       O -4.54337e+00  1.25494e+01 -7.70088e+00
       H -4.35159e+00  1.25639e+01 -9.51817e+00
       H -4.54500e+00  1.43462e+01 -7.14634e+00
       O -8.21952e+00  4.78190e+00  6.63226e-01
       H  7.30971e+00  3.75313e+00  2.03107e-01
       H -6.70317e+00  3.77635e+00  3.36440e-01
       O -3.97040e+00  1.21415e+01  6.63326e-01
       H -5.43738e+00  1.11127e+01  2.03185e-01
       H -2.45407e+00  1.11360e+01  3.36426e-01
       O -3.95476e+00  2.16964e+00  1.30541e+01
       H -3.95303e+00  3.72832e-01  1.36087e+01
       H -4.14651e+00  2.15510e+00  1.12369e+01
       O -8.20373e+00  9.52937e+00  1.30540e+01
       H -8.20206e+00  7.73252e+00  1.36085e+01
       H -8.39548e+00  9.51483e+00  1.12368e+01
       O -4.52770e+00  2.57756e+00  7.58140e+00
       H -6.04399e+00  3.58315e+00  7.25450e+00
       H -3.06066e+00  3.60630e+00  7.12138e+00
       O  8.21951e+00  9.93714e+00  7.58157e+00
       H  6.70319e+00  1.09427e+01  7.25463e+00
       H -7.30968e+00  1.09658e+01  7.12140e+00
       O  8.20369e+00  5.18993e+00  6.13578e+00
       H  8.39547e+00  5.20441e+00  4.31850e+00
       H  8.20212e+00  6.98674e+00  6.69030e+00
       O -4.54348e+00  1.25494e+01  6.13570e+00
       H -4.35158e+00  1.25639e+01  4.31845e+00
       H -4.54503e+00  1.43462e+01  6.69025e+00
       O  2.78573e-01 -9.93717e+00 -1.31734e+01
       H -1.18842e+00 -1.09659e+01 -1.36336e+01
       H  1.79493e+00 -1.09427e+01 -1.35002e+01
       O  4.52772e+00 -2.57751e+00 -1.31733e+01
       H  3.06068e+00 -3.60627e+00 -1.36334e+01
       H  6.04403e+00 -3.58305e+00 -1.35003e+01
       O  4.54334e+00 -1.25494e+01 -7.82465e-01
       H  4.54513e+00 -1.43463e+01 -2.27989e-01
       H  4.35168e+00 -1.25640e+01 -2.59974e+00
       O  2.94294e-01 -5.18980e+00 -7.82487e-01
       H  2.96032e-01 -6.98663e+00 -2.28053e-01
       H  1.02602e-01 -5.20427e+00 -2.59977e+00
       O  3.97042e+00 -1.21415e+01 -6.25517e+00
       H  2.45414e+00 -1.11359e+01 -6.58198e+00
       H  5.43747e+00 -1.11128e+01 -6.71526e+00
       O -2.78672e-01 -4.78194e+00 -6.25508e+00
       H -1.79498e+00 -3.77636e+00 -6.58199e+00
       H  1.18837e+00 -3.75320e+00 -6.71514e+00
       O -2.94511e-01 -9.52920e+00 -7.70081e+00
       H -1.02600e-01 -9.51466e+00 -9.51806e+00
       H -2.96005e-01 -7.73240e+00 -7.14625e+00
       O  3.95462e+00 -2.16972e+00 -7.70080e+00
       H  4.14654e+00 -2.15521e+00 -9.51804e+00
       H  3.95318e+00 -3.72879e-01 -7.14628e+00
       O  2.78541e-01 -9.93701e+00  6.63104e-01
       H -1.18842e+00 -1.09658e+01  2.03011e-01
       H  1.79493e+00 -1.09425e+01  3.36333e-01
       O  4.52773e+00 -2.57757e+00  6.63187e-01
       H  3.06068e+00 -3.60633e+00  2.03125e-01
       H  6.04402e+00 -3.58308e+00  3.36357e-01
       O  4.54332e+00 -1.25494e+01  1.30541e+01
       H  4.54518e+00 -1.43462e+01  1.36086e+01
       H  4.35169e+00 -1.25640e+01  1.12368e+01
       O  2.94281e-01 -5.18991e+00  1.30541e+01
       H  2.95995e-01 -6.98675e+00  1.36085e+01
       H  1.02570e-01 -5.20435e+00  1.12368e+01
       O  3.97044e+00 -1.21415e+01  7.58145e+00
       H  2.45413e+00 -1.11360e+01  7.25466e+00
       H  5.43745e+00 -1.11128e+01  7.12135e+00
       O -2.78601e-01 -4.78191e+00  7.58148e+00
       H -1.79495e+00 -3.77634e+00  7.25458e+00
       H  1.18839e+00 -3.75323e+00  7.12138e+00
       O -2.94501e-01 -9.52922e+00  6.13582e+00
       H -1.02637e-01 -9.51466e+00  4.31854e+00
       H -2.96013e-01 -7.73241e+00  6.69035e+00
       O  3.95462e+00 -2.16967e+00  6.13570e+00
       H  4.14656e+00 -2.15516e+00  4.31844e+00
       H  3.95315e+00 -3.72836e-01  6.69024e+00
       O  2.78636e-01  4.78206e+00 -1.31735e+01
       H -1.18832e+00  3.75329e+00 -1.36335e+01
       H  1.79499e+00  3.77651e+00 -1.35003e+01
       O  4.52773e+00  1.21415e+01 -1.31733e+01
       H  3.06066e+00  1.11127e+01 -1.36334e+01
       H  6.04403e+00  1.11360e+01 -1.35003e+01
       O  4.54332e+00  2.16970e+00 -7.82499e-01
       H  4.54510e+00  3.72872e-01 -2.27973e-01
       H  4.35161e+00  2.15513e+00 -2.59979e+00
       O  2.94188e-01  9.52923e+00 -7.82517e-01
       H  2.95976e-01  7.73239e+00 -2.28033e-01
       H  1.02486e-01  9.51470e+00 -2.59980e+00
       O  3.97041e+00  2.57752e+00 -6.25508e+00
       H  2.45414e+00  3.58307e+00 -6.58188e+00
       H  5.43747e+00  3.60626e+00 -6.71516e+00
       O -2.78677e-01  9.93714e+00 -6.25506e+00
       H -1.79497e+00  1.09427e+01 -6.58203e+00
       H  1.18838e+00  1.09659e+01 -6.71517e+00
       O -2.94451e-01  5.18990e+00 -7.70074e+00
       H -1.02475e-01  5.20442e+00 -9.51799e+00
       H -2.95971e-01  6.98671e+00 -7.14623e+00
       O  3.95453e+00  1.25494e+01 -7.70088e+00
       H  4.14650e+00  1.25638e+01 -9.51813e+00
       H  3.95314e+00  1.43462e+01 -7.14638e+00
       O  2.78666e-01  4.78190e+00  6.63181e-01
       H -1.18838e+00  3.75314e+00  2.03219e-01
       H  1.79499e+00  3.77637e+00  3.36305e-01
       O  4.52768e+00  1.21415e+01  6.63233e-01
       H  3.06065e+00  1.11127e+01  2.03130e-01
       H  6.04402e+00  1.11359e+01  3.36318e-01
       O  4.54337e+00  2.16963e+00  1.30541e+01
       H  4.54515e+00  3.72778e-01  1.36085e+01
       H  4.35165e+00  2.15511e+00  1.12368e+01
       O  2.94139e-01  9.52935e+00  1.30540e+01
       H  2.96028e-01  7.73252e+00  1.36085e+01
       H  1.02508e-01  9.51480e+00  1.12368e+01
       O  3.97044e+00  2.57752e+00  7.58146e+00
       H  2.45409e+00  3.58312e+00  7.25468e+00
       H  5.43745e+00  3.60627e+00  7.12136e+00
       O -2.78642e-01  9.93713e+00  7.58156e+00
       H -1.79498e+00  1.09426e+01  7.25459e+00
       H  1.18834e+00  1.09658e+01  7.12145e+00
       O -2.94462e-01  5.18993e+00  6.13575e+00
       H -1.02485e-01  5.20444e+00  4.31854e+00
       H -2.95928e-01  6.98677e+00  6.69031e+00
       O  3.95461e+00  1.25493e+01  6.13580e+00
       H  4.14651e+00  1.25638e+01  4.31854e+00
       H  3.95313e+00  1.43462e+01  6.69028e+00
192
# CELL(abcABC):   16.99620    29.43815    27.67315    90.00000    90.00000    90.00000  Step:          10  Bead:      17 positions{atomic_unit}  cell{atomic_unit}
       O -8.18382e+00 -9.94832e+00 -1.31619e+01
       H  7.16586e+00 -1.10943e+01 -1.37806e+01
       H -6.67867e+00 -1.10420e+01 -1.35730e+01
       O -3.94621e+00 -2.55924e+00 -1.31813e+01
       H -5.38919e+00 -3.60301e+00 -1.36945e+01
       H -2.49402e+00 -3.49571e+00 -1.34184e+01
       O -3.94975e+00 -1.25271e+01 -7.82389e-01
       H -3.93050e+00 -1.43167e+01 -2.16523e-01
       H -4.22070e+00 -1.26477e+01 -2.63357e+00
       O -8.22132e+00 -5.15338e+00 -7.52217e-01
       H -8.25991e+00 -6.78674e+00 -2.46986e-01
       H -8.46571e+00 -5.17085e+00 -2.54500e+00
       O -4.50161e+00 -1.21405e+01 -6.25980e+00
       H -5.94793e+00 -1.10134e+01 -6.54567e+00
       H -3.00412e+00 -1.10956e+01 -6.72847e+00
       O  8.24420e+00 -4.78680e+00 -6.26370e+00
       H  6.98464e+00 -3.86446e+00 -6.81074e+00
       H -7.17915e+00 -3.72635e+00 -6.89964e+00
       O  8.25194e+00 -9.55027e+00 -7.69326e+00
       H  8.39567e+00 -9.63709e+00 -9.63141e+00
       H  8.17910e+00 -7.98809e+00 -6.98735e+00
       O -4.55563e+00 -2.16361e+00 -7.71769e+00
       H -4.20333e+00 -2.16833e+00 -9.66914e+00
       H -4.70316e+00 -4.21838e-01 -7.13599e+00
       O -8.22431e+00 -9.92819e+00  6.45049e-01
       H  7.33285e+00 -1.10366e+01  2.36387e-01
       H -6.81346e+00 -1.09782e+01  3.02067e-01
       O -3.93637e+00 -2.62535e+00  6.66469e-01
       H -5.50395e+00 -3.54205e+00  1.39384e-01
       H -2.45967e+00 -3.72866e+00  2.99189e-01
       O -3.93127e+00 -1.25253e+01  1.30395e+01
       H -4.06503e+00 -1.45495e+01  1.37419e+01
       H -4.20937e+00 -1.25470e+01  1.12374e+01
       O -8.23282e+00 -5.18912e+00  1.30365e+01
       H -8.19764e+00 -7.01503e+00  1.36522e+01
       H -8.24907e+00 -5.06955e+00  1.10860e+01
       O -4.55210e+00 -1.21155e+01  7.59842e+00
       H -5.90091e+00 -1.10876e+01  7.19917e+00
       H -2.96110e+00 -1.10456e+01  6.88456e+00
       O  8.21601e+00 -4.76593e+00  7.56932e+00
       H  6.60733e+00 -3.77791e+00  7.10135e+00
       H -7.34675e+00 -3.64658e+00  7.20420e+00
       O  8.17868e+00 -9.51075e+00  6.13030e+00
       H  8.30349e+00 -9.53087e+00  4.25952e+00
       H  8.38050e+00 -7.78300e+00  6.69381e+00
       O -4.55670e+00 -2.14454e+00  6.14519e+00
       H -4.45632e+00 -2.10582e+00  4.36097e+00
       H -4.54186e+00 -3.13742e-01  6.80796e+00
       O -8.19928e+00  4.75239e+00 -1.32027e+01
       H  7.28257e+00  3.65673e+00 -1.34041e+01
       H -6.66253e+00  3.68411e+00 -1.35681e+01
       O -3.97813e+00  1.21369e+01 -1.31829e+01
       H -5.67064e+00  1.12101e+01 -1.38567e+01
       H -2.49889e+00  1.10875e+01 -1.34154e+01
       O -4.00848e+00  2.14945e+00 -8.07517e-01
       H -3.95320e+00  4.62858e-01 -2.92263e-01
       H -4.20672e+00  2.10415e+00 -2.77281e+00
       O -8.17826e+00  9.52674e+00 -7.83681e-01
       H -8.19669e+00  7.69625e+00 -2.30041e-01
       H -8.41011e+00  9.44829e+00 -2.72291e+00
       O -4.53806e+00  2.53287e+00 -6.23459e+00
       H -6.06046e+00  3.62054e+00 -6.55032e+00
       H -3.10595e+00  3.61110e+00 -6.67479e+00
       O  8.18653e+00  9.91974e+00 -6.18591e+00
       H  6.62645e+00  1.10300e+01 -6.43054e+00
       H -7.40534e+00  1.10290e+01 -6.66656e+00
       O  8.20192e+00  5.19674e+00 -7.68679e+00
       H  8.49136e+00  5.16251e+00 -9.59141e+00
       H  8.22675e+00  7.05909e+00 -7.17062e+00
       O -4.53859e+00  1.25447e+01 -7.72237e+00
       H -4.37464e+00  1.25637e+01 -9.52539e+00
       H -4.57347e+00  1.45706e+01 -7.20938e+00
       O -8.22471e+00  4.82241e+00  6.32346e-01
       H  7.32560e+00  3.66590e+00  2.99236e-01
       H -6.61816e+00  3.73180e+00  4.11863e-01
       O -3.97510e+00  1.21489e+01  6.76376e-01
       H -5.45540e+00  1.11982e+01  2.02806e-01
       H -2.40436e+00  1.11240e+01  3.57102e-01
       O -3.94366e+00  2.17690e+00  1.30535e+01
       H -4.04182e+00  3.71854e-01  1.33874e+01
       H -4.10869e+00  2.17256e+00  1.12469e+01
       O -8.21962e+00  9.48203e+00  1.30242e+01
       H -8.02151e+00  7.70091e+00  1.35153e+01
       H -8.50484e+00  9.47553e+00  1.11847e+01
       O -4.53030e+00  2.59196e+00  7.56097e+00
       H -6.10473e+00  3.64784e+00  6.98955e+00
       H -3.16205e+00  3.62575e+00  6.91553e+00
       O  8.17987e+00  9.96094e+00  7.55782e+00
       H  6.89733e+00  1.08236e+01  7.06901e+00
       H -7.34023e+00  1.09741e+01  7.15451e+00
       O  8.21894e+00  5.18745e+00  6.12201e+00
       H  8.45797e+00  5.25480e+00  4.31715e+00
       H  8.13011e+00  6.95347e+00  6.81719e+00
       O -4.54287e+00  1.25797e+01  6.15585e+00
       H -4.44164e+00  1.25953e+01  4.28766e+00
       H -4.61263e+00  1.45133e+01  6.84086e+00
       O  2.87589e-01 -9.95565e+00 -1.31868e+01
       H -1.25935e+00 -1.09485e+01 -1.36641e+01
       H  1.80872e+00 -1.09379e+01 -1.34513e+01
       O  4.58892e+00 -2.59811e+00 -1.31427e+01
       H  3.24180e+00 -3.40853e+00 -1.36228e+01
       H  6.03676e+00 -3.44442e+00 -1.34840e+01
       O  4.56646e+00 -1.25747e+01 -7.44365e-01
       H  4.54927e+00 -1.43287e+01 -2.31022e-01
       H  4.36921e+00 -1.25402e+01 -2.67594e+00
       O  2.83732e-01 -5.17445e+00 -7.86519e-01
       H  1.58758e-01 -7.17896e+00 -3.66131e-01
       H  1.77630e-01 -5.16612e+00 -2.63012e+00
       O  3.96212e+00 -1.21909e+01 -6.27835e+00
       H  2.51030e+00 -1.11677e+01 -6.70830e+00
       H  5.42659e+00 -1.12335e+01 -6.89103e+00
       O -2.81197e-01 -4.78304e+00 -6.28024e+00
       H -1.82944e+00 -3.72898e+00 -6.52521e+00
       H  1.33215e+00 -3.73679e+00 -6.97815e+00
       O -2.99063e-01 -9.55447e+00 -7.70606e+00
       H -1.03395e-01 -9.55084e+00 -9.60213e+00
       H -3.85241e-01 -7.66616e+00 -7.08627e+00
       O  3.98012e+00 -2.19853e+00 -7.69722e+00
       H  4.15344e+00 -1.96802e+00 -9.50424e+00
       H  4.06694e+00 -4.39786e-01 -7.05359e+00
       O  2.48140e-01 -9.96378e+00  6.43776e-01
       H -1.07732e+00 -1.09292e+01  2.87955e-01
       H  1.75307e+00 -1.09671e+01  4.02032e-01
       O  4.52813e+00 -2.58394e+00  6.84303e-01
       H  2.99585e+00 -3.60207e+00  2.19609e-01
       H  6.16199e+00 -3.44386e+00  3.75417e-01
       O  4.54880e+00 -1.25049e+01  1.30469e+01
       H  4.60124e+00 -1.43864e+01  1.35444e+01
       H  4.33189e+00 -1.25984e+01  1.12528e+01
       O  2.96035e-01 -5.16278e+00  1.30107e+01
       H  4.73489e-01 -6.90683e+00  1.36964e+01
       H  1.69341e-01 -5.14089e+00  1.12816e+01
       O  3.94722e+00 -1.20925e+01  7.58338e+00
       H  2.41525e+00 -1.11064e+01  7.30830e+00
       H  5.45457e+00 -1.12455e+01  7.16838e+00
       O -2.62626e-01 -4.83616e+00  7.59485e+00
       H -1.88733e+00 -3.70802e+00  7.27716e+00
       H  1.15556e+00 -3.82678e+00  7.18236e+00
       O -2.75585e-01 -9.52788e+00  6.16237e+00
       H -1.38789e-01 -9.56663e+00  4.30876e+00
       H -2.89785e-01 -7.75517e+00  6.67964e+00
       O  3.93279e+00 -2.14138e+00  6.16192e+00
       H  4.07130e+00 -2.24019e+00  4.34507e+00
       H  4.03997e+00 -5.06317e-01  6.59042e+00
       O  2.88294e-01  4.77912e+00 -1.31529e+01
       H -1.11577e+00  3.74079e+00 -1.35348e+01
       H  1.72664e+00  3.76623e+00 -1.34551e+01
       O  4.53347e+00  1.21687e+01 -1.31722e+01
       H  3.21442e+00  1.09863e+01 -1.36752e+01
       H  5.96283e+00  1.10592e+01 -1.35035e+01
       O  4.54599e+00  2.17652e+00 -7.77160e-01
       H  4.60459e+00  4.26106e-01 -1.51023e-01
       H  4.36724e+00  2.17432e+00 -2.57534e+00
       O  2.82978e-01  9.49291e+00 -7.54706e-01
       H  3.19606e-01  7.73785e+00 -1.78201e-01
       H  3.91326e-02  9.40346e+00 -2.35154e+00
       O  3.97180e+00  2.57951e+00 -6.22904e+00
       H  2.57605e+00  3.49758e+00 -6.61257e+00
       H  5.41273e+00  3.66457e+00 -6.87556e+00
       O -3.06702e-01  9.91224e+00 -6.28034e+00
       H -1.84736e+00  1.10976e+01 -6.55814e+00
       H  1.29136e+00  1.10277e+01 -6.70466e+00
       O -2.58649e-01  5.18829e+00 -7.68302e+00
       H -5.69194e-02  5.37786e+00 -9.47784e+00
       H -1.04039e-01  7.08456e+00 -7.14887e+00
       O  3.95143e+00  1.25638e+01 -7.73293e+00
       H  4.11766e+00  1.24997e+01 -9.51807e+00
       H  3.99437e+00  1.43760e+01 -7.07566e+00
       O  2.74217e-01  4.73332e+00  6.65599e-01
       H -1.17957e+00  3.84206e+00  1.60646e-01
       H  1.64322e+00  3.77596e+00  2.59013e-01
       O  4.52879e+00  1.21410e+01  7.00426e-01
       H  3.14126e+00  1.10697e+01  8.70078e-02
       H  6.20112e+00  1.11130e+01  1.92942e-01
       O  4.51012e+00  2.17119e+00  1.30311e+01
       H  4.46241e+00  2.93545e-01  1.38087e+01
       H  4.46957e+00  2.16057e+00  1.11365e+01
       O  3.11483e-01  9.53854e+00  1.30780e+01
       H  3.83468e-01  7.73724e+00  1.36997e+01
       H -3.05273e-03  9.44769e+00  1.13147e+01
       O  3.94826e+00  2.58240e+00  7.60370e+00
       H  2.37764e+00  3.46427e+00  7.43783e+00
       H  5.36149e+00  3.63441e+00  7.07094e+00
       O -3.57961e-01  9.88768e+00  7.58568e+00
       H -1.78417e+00  1.10461e+01  7.31702e+00
       H  1.22473e+00  1.07655e+01  7.14744e+00
       O -2.96236e-01  5.20387e+00  6.16617e+00
       H -7.58186e-02  5.20523e+00  4.49822e+00
       H -3.39499e-01  6.89459e+00  6.67934e+00
       O  3.96763e+00  1.25112e+01  6.06814e+00
       H  4.07445e+00  1.26565e+01  4.35533e+00
       H  3.96601e+00  1.42786e+01  6.77440e+00
192
# CELL(abcABC):   16.99620    29.43815    27.67315    90.00000    90.00000    90.00000  Step:          20  Bead:      17 positions{atomic_unit}  cell{atomic_unit}
       O -8.17917e+00 -9.90041e+00 -1.31270e+01
       H  7.02999e+00 -1.12393e+01 -1.37217e+01
       H -6.83648e+00 -1.11032e+01 -1.35973e+01
       O -3.98049e+00 -2.50333e+00 -1.31714e+01
       H -5.39247e+00 -3.76367e+00 -1.37215e+01
       H -2.53202e+00 -3.38672e+00 -1.33071e+01
       O -3.94948e+00 -1.25005e+01 -7.65379e-01
       H -3.97356e+00 -1.43323e+01 -1.91311e-01
       H -4.43528e+00 -1.26820e+01 -2.53095e+00
       O -8.21695e+00 -5.13814e+00 -7.38643e-01
       H -8.38016e+00 -6.88978e+00 -3.14339e-01
       H -8.41528e+00 -5.31819e+00 -2.44774e+00
       O -4.47441e+00 -1.21544e+01 -6.27861e+00
       H -5.92459e+00 -1.10472e+01 -6.63716e+00
       H -2.78820e+00 -1.12625e+01 -6.74789e+00
       O  8.22726e+00 -4.80151e+00 -6.30466e+00
       H  7.00564e+00 -3.72004e+00 -6.63584e+00
       H -7.19667e+00 -3.66463e+00 -6.92284e+00
       O  8.27122e+00 -9.51963e+00 -7.68031e+00
       H  8.32147e+00 -9.63701e+00 -9.64787e+00
       H  8.24669e+00 -7.99987e+00 -7.15182e+00
       O -4.58264e+00 -2.15581e+00 -7.70050e+00
       H -4.25473e+00 -2.16445e+00 -9.52808e+00
       H -4.78802e+00 -4.25496e-01 -7.11787e+00
       O -8.17507e+00 -9.91401e+00  6.57380e-01
       H  7.42906e+00 -1.10559e+01  2.70048e-01
       H -6.93019e+00 -1.09288e+01  2.02368e-01
       O -3.93570e+00 -2.61085e+00  6.91748e-01
       H -5.56690e+00 -3.42978e+00  1.68858e-01
       H -2.53894e+00 -3.89036e+00  3.44248e-01
       O -3.92138e+00 -1.25397e+01  1.30741e+01
       H -3.87754e+00 -1.44418e+01  1.37854e+01
       H -4.38620e+00 -1.24652e+01  1.13404e+01
       O -8.22177e+00 -5.14472e+00  1.30270e+01
       H -8.17935e+00 -7.05093e+00  1.35929e+01
       H -8.31068e+00 -4.95397e+00  1.10707e+01
       O -4.56605e+00 -1.20957e+01  7.60891e+00
       H -5.94861e+00 -1.11687e+01  7.17487e+00
       H -2.95153e+00 -1.10030e+01  7.00418e+00
       O  8.25560e+00 -4.76716e+00  7.58730e+00
       H  6.76332e+00 -3.83669e+00  6.99162e+00
       H -7.45375e+00 -3.67787e+00  7.26906e+00
       O  8.18692e+00 -9.53653e+00  6.09560e+00
       H  8.23549e+00 -9.34441e+00  4.31340e+00
       H  8.41762e+00 -7.88983e+00  6.59359e+00
       O -4.59157e+00 -2.13627e+00  6.12492e+00
       H -4.50563e+00 -2.37408e+00  4.44277e+00
       H -4.59576e+00 -3.93524e-01  6.95341e+00
       O -8.18079e+00  4.71807e+00 -1.32453e+01
       H  7.35439e+00  3.83349e+00 -1.35261e+01
       H -6.59100e+00  3.63184e+00 -1.37415e+01
       O -3.94787e+00  1.21178e+01 -1.31882e+01
       H -5.53202e+00  1.14594e+01 -1.38923e+01
       H -2.35734e+00  1.12377e+01 -1.33872e+01
       O -4.03056e+00  2.13933e+00 -7.74466e-01
       H -4.07186e+00  4.67857e-01 -2.52777e-01
       H -4.21709e+00  2.15079e+00 -2.58034e+00
       O -8.20290e+00  9.52637e+00 -7.92151e-01
       H -8.11646e+00  7.67701e+00 -2.99464e-01
       H -8.29875e+00  9.51395e+00 -2.83662e+00
       O -4.55054e+00  2.49619e+00 -6.19531e+00
       H -6.15319e+00  3.55858e+00 -6.45106e+00
       H -3.14810e+00  3.68754e+00 -6.65477e+00
       O  8.13492e+00  9.89923e+00 -6.19247e+00
       H  6.61585e+00  1.10390e+01 -6.40342e+00
       H -7.47428e+00  1.11249e+01 -6.62275e+00
       O  8.19175e+00  5.16663e+00 -7.69485e+00
       H  8.40744e+00  5.15492e+00 -9.72984e+00
       H  8.20295e+00  7.16177e+00 -7.38856e+00
       O -4.57533e+00  1.25487e+01 -7.71272e+00
       H -4.31680e+00  1.25563e+01 -9.59048e+00
       H -4.60078e+00  1.46999e+01 -7.25479e+00
       O -8.17248e+00  4.81989e+00  5.99259e-01
       H  7.28086e+00  3.61826e+00  2.37694e-01
       H -6.51404e+00  3.87341e+00  6.66314e-01
       O -3.99118e+00  1.21299e+01  6.38631e-01
       H -5.46461e+00  1.11607e+01  2.11967e-01
       H -2.42450e+00  1.12208e+01  2.92642e-01
       O -3.94221e+00  2.19790e+00  1.30981e+01
       H -3.88235e+00  4.42437e-01  1.34277e+01
       H -4.13991e+00  2.18828e+00  1.13342e+01
       O -8.22295e+00  9.48548e+00  1.30496e+01
       H -8.19865e+00  7.69821e+00  1.34710e+01
       H -8.32898e+00  9.55839e+00  1.12242e+01
       O -4.52362e+00  2.62967e+00  7.51987e+00
       H -5.97199e+00  3.68521e+00  7.06394e+00
       H -3.10162e+00  3.70406e+00  6.83410e+00
       O  8.18918e+00  9.93147e+00  7.60283e+00
       H  6.92087e+00  1.08004e+01  6.90517e+00
       H -7.15862e+00  1.08733e+01  7.38236e+00
       O  8.22114e+00  5.18771e+00  6.15253e+00
       H  8.54350e+00  5.21192e+00  4.29495e+00
       H  8.00397e+00  7.09428e+00  6.81214e+00
       O -4.53703e+00  1.25470e+01  6.15649e+00
       H -4.43574e+00  1.25278e+01  4.20311e+00
       H -4.51172e+00  1.44795e+01  6.95135e+00
       O  3.01051e-01 -9.97350e+00 -1.32033e+01
       H -1.11254e+00 -1.10356e+01 -1.37968e+01
       H  1.86228e+00 -1.09978e+01 -1.33855e+01
       O  4.56871e+00 -2.61190e+00 -1.31574e+01
       H  3.31011e+00 -3.65087e+00 -1.37711e+01
       H  6.05325e+00 -3.59202e+00 -1.35646e+01
       O  4.58969e+00 -1.25928e+01 -7.39116e-01
       H  4.57184e+00 -1.43328e+01 -3.86921e-01
       H  4.45914e+00 -1.25120e+01 -2.57322e+00
       O  2.87776e-01 -5.17924e+00 -7.96379e-01
       H  1.40634e-01 -7.13679e+00 -3.79436e-01
       H  3.53683e-01 -5.20282e+00 -2.50490e+00
       O  3.99022e+00 -1.22605e+01 -6.28376e+00
       H  2.44942e+00 -1.10669e+01 -6.73544e+00
       H  5.33333e+00 -1.13599e+01 -6.80166e+00
       O -2.82453e-01 -4.79599e+00 -6.29156e+00
       H -1.91726e+00 -3.74062e+00 -6.42030e+00
       H  1.35172e+00 -3.67627e+00 -7.06936e+00
       O -2.74164e-01 -9.53370e+00 -7.68511e+00
       H -8.42481e-02 -9.55202e+00 -9.58754e+00
       H -4.87916e-01 -7.56054e+00 -7.01794e+00
       O  3.99185e+00 -2.22531e+00 -7.69163e+00
       H  4.17278e+00 -2.02930e+00 -9.64041e+00
       H  4.14308e+00 -4.12592e-01 -7.19745e+00
       O  2.45786e-01 -9.96856e+00  6.03736e-01
       H -1.05351e+00 -1.10625e+01  3.68841e-01
       H  1.75923e+00 -1.09930e+01  3.90969e-01
       O  4.47973e+00 -2.60379e+00  6.76183e-01
       H  3.04211e+00 -3.62466e+00  4.38526e-01
       H  6.30475e+00 -3.40368e+00  2.52764e-01
       O  4.55525e+00 -1.25005e+01  1.30692e+01
       H  4.43835e+00 -1.44539e+01  1.34557e+01
       H  4.25732e+00 -1.25906e+01  1.13783e+01
       O  2.43729e-01 -5.16761e+00  1.30185e+01
       H  4.25466e-01 -6.90238e+00  1.38692e+01
       H  2.52344e-01 -5.13740e+00  1.12224e+01
       O  3.94326e+00 -1.21208e+01  7.60890e+00
       H  2.39850e+00 -1.09744e+01  7.25047e+00
       H  5.42575e+00 -1.13917e+01  7.15695e+00
       O -2.29767e-01 -4.82552e+00  7.57272e+00
       H -1.87424e+00 -3.89482e+00  7.27119e+00
       H  1.07134e+00 -3.80157e+00  7.13950e+00
       O -2.58190e-01 -9.57047e+00  6.16650e+00
       H -1.51103e-01 -9.42538e+00  4.35569e+00
       H -2.71552e-01 -7.89418e+00  6.64691e+00
       O  3.92096e+00 -2.13205e+00  6.17595e+00
       H  4.07233e+00 -2.20671e+00  4.36891e+00
       H  3.93559e+00 -3.60619e-01  6.52544e+00
       O  3.21410e-01  4.77023e+00 -1.31334e+01
       H -1.03128e+00  3.79831e+00 -1.35797e+01
       H  1.69168e+00  3.75198e+00 -1.34437e+01
       O  4.54900e+00  1.21855e+01 -1.31354e+01
       H  3.07676e+00  1.10809e+01 -1.35812e+01
       H  6.14851e+00  1.10417e+01 -1.34586e+01
       O  4.54799e+00  2.18225e+00 -8.02301e-01
       H  4.83881e+00  4.62431e-01 -2.26273e-01
       H  4.26928e+00  2.15752e+00 -2.64483e+00
       O  2.62912e-01  9.48313e+00 -7.11878e-01
       H  3.88588e-01  7.65278e+00 -1.90093e-01
       H -3.41178e-02  9.25747e+00 -2.46959e+00
       O  3.97182e+00  2.59776e+00 -6.22726e+00
       H  2.53417e+00  3.59979e+00 -6.74344e+00
       H  5.46435e+00  3.59881e+00 -6.97543e+00
       O -3.05232e-01  9.92743e+00 -6.29836e+00
       H -1.78153e+00  1.09131e+01 -6.52864e+00
       H  1.26610e+00  1.10712e+01 -6.49754e+00
       O -2.37277e-01  5.19000e+00 -7.65134e+00
       H -5.04001e-02  5.24911e+00 -9.48460e+00
       H -2.05993e-01  6.99518e+00 -7.13752e+00
       O  3.92943e+00  1.25811e+01 -7.75287e+00
       H  4.08781e+00  1.23958e+01 -9.59699e+00
       H  3.88225e+00  1.44054e+01 -6.88061e+00
       O  2.77518e-01  4.71580e+00  6.74405e-01
       H -1.05808e+00  3.72414e+00  1.38376e-01
       H  1.47685e+00  3.74020e+00  2.53647e-01
       O  4.55552e+00  1.21220e+01  7.35625e-01
       H  3.15136e+00  1.12028e+01  1.38779e-01
       H  6.15967e+00  1.11861e+01  3.48895e-01
       O  4.49395e+00  2.15641e+00  1.30544e+01
       H  4.48867e+00  3.04478e-01  1.38598e+01
       H  4.38912e+00  2.19101e+00  1.10934e+01
       O  3.04031e-01  9.52001e+00  1.30857e+01
       H  4.71890e-01  7.66266e+00  1.36590e+01
       H -7.31127e-02  9.34791e+00  1.14136e+01
       O  3.97292e+00  2.59063e+00  7.60029e+00
       H  2.37391e+00  3.21008e+00  7.46267e+00
       H  5.30352e+00  3.62467e+00  7.09476e+00
       O -3.92186e-01  9.90379e+00  7.60552e+00
       H -1.80853e+00  1.10064e+01  7.28690e+00
       H  1.42204e+00  1.06629e+01  7.03494e+00
       O -3.28100e-01  5.17188e+00  6.18400e+00
       H -1.91355e-01  5.17538e+00  4.54096e+00
       H -3.27387e-01  6.73271e+00  6.60141e+00
       O  3.96355e+00  1.24920e+01  6.06277e+00
       H  3.94335e+00  1.27582e+01  4.38258e+00
       H  3.94538e+00  1.42789e+01  6.89336e+00
192
# CELL(abcABC):   16.99620    29.43815    27.67315    90.00000    90.00000    90.00000  Step:          30  Bead:      17 positions{atomic_unit}  cell{atomic_unit}
       O -8.20648e+00 -9.92116e+00 -1.31061e+01
       H  7.02563e+00 -1.09951e+01 -1.36395e+01
       H -6.75682e+00 -1.11354e+01 -1.37115e+01
       O -3.99755e+00 -2.50279e+00 -1.31902e+01
       H -5.34666e+00 -3.71294e+00 -1.35622e+01
       H -2.59828e+00 -3.46212e+00 -1.34248e+01
       O -3.98491e+00 -1.24946e+01 -7.98625e-01
       H -3.97792e+00 -1.44938e+01 -9.99213e-02
       H -4.24457e+00 -1.26675e+01 -2.55205e+00
       O -8.20873e+00 -5.15165e+00 -7.72048e-01
       H -8.29681e+00 -6.99261e+00 -3.79851e-01
       H -8.56977e+00 -5.32073e+00 -2.44914e+00
       O -4.45980e+00 -1.21681e+01 -6.29794e+00
       H -6.04740e+00 -1.11742e+01 -6.74538e+00
       H -2.66407e+00 -1.13653e+01 -6.80467e+00
       O  8.19715e+00 -4.80939e+00 -6.33077e+00
       H  6.89185e+00 -3.73867e+00 -6.51645e+00
       H -7.19385e+00 -3.78047e+00 -6.95867e+00
       O  8.23359e+00 -9.52547e+00 -7.65753e+00
       H  8.37413e+00 -9.71110e+00 -9.38781e+00
       H  8.21314e+00 -7.85265e+00 -7.08201e+00
       O -4.56865e+00 -2.14314e+00 -7.70156e+00
       H -4.13367e+00 -2.06502e+00 -9.53408e+00
       H -5.03240e+00 -4.35810e-01 -7.15409e+00
       O -8.21715e+00 -9.90512e+00  6.23891e-01
       H  7.40135e+00 -1.09598e+01  2.55026e-01
       H -7.00635e+00 -1.09643e+01  2.75640e-01
       O -3.90836e+00 -2.59822e+00  7.28774e-01
       H -5.56608e+00 -3.59585e+00  3.76653e-01
       H -2.49026e+00 -3.96888e+00  2.34182e-01
       O -3.95105e+00 -1.25185e+01  1.30837e+01
       H -3.80550e+00 -1.44398e+01  1.38512e+01
       H -4.29324e+00 -1.24766e+01  1.13459e+01
       O -8.21601e+00 -5.13077e+00  1.30171e+01
       H -8.03198e+00 -7.00846e+00  1.35877e+01