192
# CELL(abcABC):   16.99620    29.43815    27.67315    90.00000    90.00000    90.00000  Step:           0  Bead:       2 positions{atomic_unit}  cell{atomic_unit}
       O -8.21943e+00 -9.93714e+00 -1.31733e+01
       H  7.30975e+00 -1.09659e+01 -1.36333e+01
       H -6.70309e+00 -1.09427e+01 -1.35003e+01
       O -3.97045e+00 -2.57760e+00 -1.31733e+01
       H -5.43740e+00 -3.60640e+00 -1.36335e+01
       H -2.45410e+00 -3.58307e+00 -1.35002e+01
       O -3.95479e+00 -1.25494e+01 -7.82537e-01
       H -3.95303e+00 -1.43463e+01 -2.27998e-01
       H -4.14654e+00 -1.25640e+01 -2.59980e+00
       O -8.20381e+00 -5.18980e+00 -7.82573e-01
       H -8.20206e+00 -6.98662e+00 -2.28079e-01
       H -8.39554e+00 -5.20430e+00 -2.59985e+00
       O -4.52774e+00 -1.21415e+01 -6.25501e+00
       H -6.04401e+00 -1.11359e+01 -6.58198e+00
       H -3.06070e+00 -1.11128e+01 -6.71509e+00
       O  8.21948e+00 -4.78197e+00 -6.25503e+00
       H  6.70316e+00 -3.77646e+00 -6.58191e+00
       H -7.30970e+00 -3.75321e+00 -6.71514e+00
       O  8.20373e+00 -9.52922e+00 -7.70081e+00
       H  8.39566e+00 -9.51468e+00 -9.51806e+00
       H  8.20220e+00 -7.73240e+00 -7.14624e+00
       O -4.54345e+00 -2.16975e+00 -7.70084e+00
       H -4.35162e+00 -2.15526e+00 -9.51812e+00
       H -4.54503e+00 -3.72917e-01 -7.14634e+00
       O -8.21943e+00 -9.93697e+00  6.63195e-01
       H  7.30977e+00 -1.09657e+01  2.03202e-01
       H -6.70308e+00 -1.09425e+01  3.36227e-01
       O -3.97044e+00 -2.57760e+00  6.63173e-01
       H -5.43747e+00 -3.60635e+00  2.03069e-01
       H -2.45410e+00 -3.58312e+00  3.36346e-01
       O -3.95472e+00 -1.25494e+01  1.30540e+01
       H -3.95309e+00 -1.43462e+01  1.36086e+01
       H -4.14653e+00 -1.25640e+01  1.12368e+01
       O -8.20380e+00 -5.18990e+00  1.30541e+01
       H -8.20202e+00 -6.98672e+00  1.36085e+01
       H -8.39553e+00 -5.20434e+00  1.12368e+01
       O -4.52771e+00 -1.21415e+01  7.58159e+00
       H -6.04402e+00 -1.11360e+01  7.25460e+00
       H -3.06070e+00 -1.11128e+01  7.12152e+00
       O  8.21944e+00 -4.78191e+00  7.58149e+00
       H  6.70312e+00 -3.77633e+00  7.25453e+00
       H -7.30974e+00 -3.75322e+00  7.12139e+00
       O  8.20378e+00 -9.52926e+00  6.13582e+00
       H  8.39564e+00 -9.51474e+00  4.31856e+00
       H  8.20221e+00 -7.73246e+00  6.69037e+00
       O -4.54344e+00 -2.16971e+00  6.13568e+00
       H -4.35161e+00 -2.15522e+00  4.31840e+00
       H -4.54506e+00 -3.72896e-01  6.69017e+00
       O -8.21947e+00  4.78210e+00 -1.31734e+01
       H  7.30974e+00  3.75335e+00 -1.36334e+01
       H -6.70314e+00  3.77651e+00 -1.35002e+01
       O -3.97046e+00  1.21415e+01 -1.31733e+01
       H -5.43745e+00  1.11127e+01 -1.36334e+01
       H -2.45410e+00  1.11360e+01 -1.35002e+01
       O -3.95479e+00  2.16971e+00 -7.82462e-01
       H -3.95303e+00  3.72884e-01 -2.27933e-01
       H -4.14646e+00  2.15509e+00 -2.59975e+00
       O -8.20376e+00  9.52923e+00 -7.82499e-01
       H -8.20200e+00  7.73238e+00 -2.27998e-01
       H -8.39546e+00  9.51472e+00 -2.59977e+00
       O -4.52774e+00  2.57749e+00 -6.25512e+00
       H -6.04400e+00  3.58312e+00 -6.58197e+00
       H -3.06066e+00  3.60618e+00 -6.71512e+00
       O  8.21949e+00  9.93715e+00 -6.25509e+00
       H  6.70318e+00  1.09426e+01 -6.58202e+00
       H -7.30970e+00  1.09659e+01 -6.71526e+00
       O  8.20366e+00  5.18988e+00 -7.70077e+00
       H  8.39552e+00  5.20437e+00 -9.51803e+00
       H  8.20217e+00  6.98669e+00 -7.14625e+00
       O -4.54337e+00  1.25494e+01 -7.70088e+00
       H -4.35159e+00  1.25639e+01 -9.51817e+00
       H -4.54500e+00  1.43462e+01 -7.14634e+00
       O -8.21952e+00  4.78190e+00  6.63226e-01
       H  7.30971e+00  3.75313e+00  2.03107e-01
       H -6.70317e+00  3.77635e+00  3.36440e-01
       O -3.97040e+00  1.21415e+01  6.63326e-01
       H -5.43738e+00  1.11127e+01  2.03185e-01
       H -2.45407e+00  1.11360e+01  3.36426e-01
       O -3.95476e+00  2.16964e+00  1.30541e+01
       H -3.95303e+00  3.72832e-01  1.36087e+01
       H -4.14651e+00  2.15510e+00  1.12369e+01
       O -8.20373e+00  9.52937e+00  1.30540e+01
       H -8.20206e+00  7.73252e+00  1.36085e+01
       H -8.39548e+00  9.51483e+00  1.12368e+01
       O -4.52770e+00  2.57756e+00  7.58140e+00
       H -6.04399e+00  3.58315e+00  7.25450e+00
       H -3.06066e+00  3.60630e+00  7.12138e+00
       O  8.21951e+00  9.93714e+00  7.58157e+00
       H  6.70319e+00  1.09427e+01  7.25463e+00
       H -7.30968e+00  1.09658e+01  7.12140e+00
       O  8.20369e+00  5.18993e+00  6.13578e+00
       H  8.39547e+00  5.20441e+00  4.31850e+00
       H  8.20212e+00  6.98674e+00  6.69030e+00
       O -4.54348e+00  1.25494e+01  6.13570e+00
       H -4.35158e+00  1.25639e+01  4.31845e+00
       H -4.54503e+00  1.43462e+01  6.69025e+00
       O  2.78573e-01 -9.93717e+00 -1.31734e+01
       H -1.18842e+00 -1.09659e+01 -1.36336e+01
       H  1.79493e+00 -1.09427e+01 -1.35002e+01
       O  4.52772e+00 -2.57751e+00 -1.31733e+01
       H  3.06068e+00 -3.60627e+00 -1.36334e+01
       H  6.04403e+00 -3.58305e+00 -1.35003e+01
       O  4.54334e+00 -1.25494e+01 -7.82465e-01
       H  4.54513e+00 -1.43463e+01 -2.27989e-01
       H  4.35168e+00 -1.25640e+01 -2.59974e+00
       O  2.94294e-01 -5.18980e+00 -7.82487e-01
       H  2.96032e-01 -6.98663e+00 -2.28053e-01
       H  1.02602e-01 -5.20427e+00 -2.59977e+00
       O  3.97042e+00 -1.21415e+01 -6.25517e+00
       H  2.45414e+00 -1.11359e+01 -6.58198e+00
       H  5.43747e+00 -1.11128e+01 -6.71526e+00
       O -2.78672e-01 -4.78194e+00 -6.25508e+00
       H -1.79498e+00 -3.77636e+00 -6.58199e+00
       H  1.18837e+00 -3.75320e+00 -6.71514e+00
       O -2.94511e-01 -9.52920e+00 -7.70081e+00
       H -1.02600e-01 -9.51466e+00 -9.51806e+00
       H -2.96005e-01 -7.73240e+00 -7.14625e+00
       O  3.95462e+00 -2.16972e+00 -7.70080e+00
       H  4.14654e+00 -2.15521e+00 -9.51804e+00
       H  3.95318e+00 -3.72879e-01 -7.14628e+00
       O  2.78541e-01 -9.93701e+00  6.63104e-01
       H -1.18842e+00 -1.09658e+01  2.03011e-01
       H  1.79493e+00 -1.09425e+01  3.36333e-01
       O  4.52773e+00 -2.57757e+00  6.63187e-01
       H  3.06068e+00 -3.60633e+00  2.03125e-01
       H  6.04402e+00 -3.58308e+00  3.36357e-01
       O  4.54332e+00 -1.25494e+01  1.30541e+01
       H  4.54518e+00 -1.43462e+01  1.36086e+01
       H  4.35169e+00 -1.25640e+01  1.12368e+01
       O  2.94281e-01 -5.18991e+00  1.30541e+01
       H  2.95995e-01 -6.98675e+00  1.36085e+01
       H  1.02570e-01 -5.20435e+00  1.12368e+01
       O  3.97044e+00 -1.21415e+01  7.58145e+00
       H  2.45413e+00 -1.11360e+01  7.25466e+00
       H  5.43745e+00 -1.11128e+01  7.12135e+00
       O -2.78601e-01 -4.78191e+00  7.58148e+00
       H -1.79495e+00 -3.77634e+00  7.25458e+00
       H  1.18839e+00 -3.75323e+00  7.12138e+00
       O -2.94501e-01 -9.52922e+00  6.13582e+00
       H -1.02637e-01 -9.51466e+00  4.31854e+00
       H -2.96013e-01 -7.73241e+00  6.69035e+00
       O  3.95462e+00 -2.16967e+00  6.13570e+00
       H  4.14656e+00 -2.15516e+00  4.31844e+00
       H  3.95315e+00 -3.72836e-01  6.69024e+00
       O  2.78636e-01  4.78206e+00 -1.31735e+01
       H -1.18832e+00  3.75329e+00 -1.36335e+01
       H  1.79499e+00  3.77651e+00 -1.35003e+01
       O  4.52773e+00  1.21415e+01 -1.31733e+01
       H  3.06066e+00  1.11127e+01 -1.36334e+01
       H  6.04403e+00  1.11360e+01 -1.35003e+01
       O  4.54332e+00  2.16970e+00 -7.82499e-01
       H  4.54510e+00  3.72872e-01 -2.27973e-01
       H  4.35161e+00  2.15513e+00 -2.59979e+00
       O  2.94188e-01  9.52923e+00 -7.82517e-01
       H  2.95976e-01  7.73239e+00 -2.28033e-01
       H  1.02486e-01  9.51470e+00 -2.59980e+00
       O  3.97041e+00  2.57752e+00 -6.25508e+00
       H  2.45414e+00  3.58307e+00 -6.58188e+00
       H  5.43747e+00  3.60626e+00 -6.71516e+00
       O -2.78677e-01  9.93714e+00 -6.25506e+00
       H -1.79497e+00  1.09427e+01 -6.58203e+00
       H  1.18838e+00  1.09659e+01 -6.71517e+00
       O -2.94451e-01  5.18990e+00 -7.70074e+00
       H -1.02475e-01  5.20442e+00 -9.51799e+00
       H -2.95971e-01  6.98671e+00 -7.14623e+00
       O  3.95453e+00  1.25494e+01 -7.70088e+00
       H  4.14650e+00  1.25638e+01 -9.51813e+00
       H  3.95314e+00  1.43462e+01 -7.14638e+00
       O  2.78666e-01  4.78190e+00  6.63181e-01
       H -1.18838e+00  3.75314e+00  2.03219e-01
       H  1.79499e+00  3.77637e+00  3.36305e-01
       O  4.52768e+00  1.21415e+01  6.63233e-01
       H  3.06065e+00  1.11127e+01  2.03130e-01
       H  6.04402e+00  1.11359e+01  3.36318e-01
       O  4.54337e+00  2.16963e+00  1.30541e+01
       H  4.54515e+00  3.72778e-01  1.36085e+01
       H  4.35165e+00  2.15511e+00  1.12368e+01
       O  2.94139e-01  9.52935e+00  1.30540e+01
       H  2.96028e-01  7.73252e+00  1.36085e+01
       H  1.02508e-01  9.51480e+00  1.12368e+01
       O  3.97044e+00  2.57752e+00  7.58146e+00
       H  2.45409e+00  3.58312e+00  7.25468e+00
       H  5.43745e+00  3.60627e+00  7.12136e+00
       O -2.78642e-01  9.93713e+00  7.58156e+00
       H -1.79498e+00  1.09426e+01  7.25459e+00
       H  1.18834e+00  1.09658e+01  7.12145e+00
       O -2.94462e-01  5.18993e+00  6.13575e+00
       H -1.02485e-01  5.20444e+00  4.31854e+00
       H -2.95928e-01  6.98677e+00  6.69031e+00
       O  3.95461e+00  1.25493e+01  6.13580e+00
       H  4.14651e+00  1.25638e+01  4.31854e+00
       H  3.95313e+00  1.43462e+01  6.69028e+00
192
# CELL(abcABC):   16.99620    29.43815    27.67315    90.00000    90.00000    90.00000  Step:          10  Bead:       2 positions{atomic_unit}  cell{atomic_unit}
       O -8.22760e+00 -9.96062e+00 -1.31996e+01
       H  7.22642e+00 -1.09259e+01 -1.35947e+01
       H -6.71268e+00 -1.10075e+01 -1.36341e+01
       O -3.93714e+00 -2.51838e+00 -1.31681e+01
       H -5.51907e+00 -3.70053e+00 -1.37182e+01
       H -2.47074e+00 -3.62286e+00 -1.35418e+01
       O -3.92038e+00 -1.25744e+01 -7.72462e-01
       H -3.90851e+00 -1.43122e+01 -3.23829e-01
       H -4.09885e+00 -1.24944e+01 -2.64138e+00
       O -8.18289e+00 -5.18491e+00 -7.70212e-01
       H -8.32272e+00 -7.02629e+00 -2.99646e-01
       H -8.42103e+00 -4.94293e+00 -2.59296e+00
       O -4.52899e+00 -1.21057e+01 -6.24877e+00
       H -6.07738e+00 -1.11472e+01 -6.70165e+00
       H -2.85252e+00 -1.11137e+01 -6.63136e+00
       O  8.19110e+00 -4.78101e+00 -6.26930e+00
       H  6.58829e+00 -3.64466e+00 -6.57217e+00
       H -7.43460e+00 -3.63204e+00 -6.74234e+00
       O  8.18773e+00 -9.51859e+00 -7.72275e+00
       H  8.31594e+00 -9.59099e+00 -9.63316e+00
       H  8.21832e+00 -7.68025e+00 -7.17780e+00
       O -4.50093e+00 -2.17998e+00 -7.71422e+00
       H -4.38138e+00 -2.10713e+00 -9.52173e+00
       H -4.53280e+00 -4.87483e-01 -7.21494e+00
       O -8.24225e+00 -9.93726e+00  6.82282e-01
       H  7.31212e+00 -1.08300e+01  2.31341e-01
       H -6.77787e+00 -1.09919e+01  3.40939e-01
       O -3.98584e+00 -2.54025e+00  6.78620e-01
       H -5.39848e+00 -3.71518e+00  2.02264e-01
       H -2.49487e+00 -3.77964e+00  4.63757e-01
       O -3.96494e+00 -1.25468e+01  1.30575e+01
       H -4.07030e+00 -1.43012e+01  1.34553e+01
       H -4.09937e+00 -1.27251e+01  1.12807e+01
       O -8.20698e+00 -5.18080e+00  1.30667e+01
       H -8.18260e+00 -6.97918e+00  1.35749e+01
       H -8.24838e+00 -5.33400e+00  1.11774e+01
       O -4.50708e+00 -1.21483e+01  7.56820e+00
       H -5.92959e+00 -1.12986e+01  7.24383e+00
       H -3.08812e+00 -1.11203e+01  7.18065e+00
       O  8.23162e+00 -4.77314e+00  7.54646e+00
       H  6.67472e+00 -3.71478e+00  7.29983e+00
       H -7.33085e+00 -3.69134e+00  7.10519e+00
       O  8.19534e+00 -9.49747e+00  6.12680e+00
       H  8.53738e+00 -9.61327e+00  4.23870e+00
       H  8.11179e+00 -7.77866e+00  6.69054e+00
       O -4.57772e+00 -2.19027e+00  6.14230e+00
       H -4.29354e+00 -2.17661e+00  4.23522e+00
       H -4.37126e+00 -3.27779e-01  6.74404e+00
       O -8.21995e+00  4.76673e+00 -1.31720e+01
       H  7.28745e+00  3.71014e+00 -1.35944e+01
       H -6.54785e+00  3.86596e+00 -1.34092e+01
       O -3.97459e+00  1.21535e+01 -1.31510e+01
       H -5.37659e+00  1.10989e+01 -1.35802e+01
       H -2.75079e+00  1.10131e+01 -1.36139e+01
       O -3.94861e+00  2.14143e+00 -7.94380e-01
       H -4.10652e+00  4.66226e-01 -2.36910e-01
       H -4.21570e+00  2.12544e+00 -2.57511e+00
       O -8.19759e+00  9.51617e+00 -7.84786e-01
       H -8.05668e+00  7.76846e+00 -2.72213e-02
       H -8.41680e+00  9.38786e+00 -2.72948e+00
       O -4.54986e+00  2.58261e+00 -6.23550e+00
       H -6.16024e+00  3.62199e+00 -6.63411e+00
       H -3.09660e+00  3.50582e+00 -6.84078e+00
       O  8.19152e+00  9.96784e+00 -6.24324e+00
       H  6.71739e+00  1.09621e+01 -6.62046e+00
       H -7.26898e+00  1.09203e+01 -6.68509e+00
       O  8.21504e+00  5.18760e+00 -7.69762e+00
       H  8.45517e+00  5.36863e+00 -9.48505e+00
       H  8.25480e+00  7.01917e+00 -7.30220e+00
       O -4.53858e+00  1.25510e+01 -7.70361e+00
       H -4.45681e+00  1.24223e+01 -9.37659e+00
       H -4.37077e+00  1.42918e+01 -7.23694e+00
       O -8.23313e+00  4.79618e+00  6.77554e-01
       H  7.33644e+00  3.54899e+00  2.89637e-01
       H -6.68115e+00  3.75410e+00  1.99912e-01
       O -3.93279e+00  1.21890e+01  6.67500e-01
       H -5.58872e+00  1.11565e+01  4.29099e-01
       H -2.52267e+00  1.11516e+01  2.86181e-01
       O -3.94465e+00  2.15580e+00  1.30308e+01
       H -3.91098e+00  3.57277e-01  1.36522e+01
       H -4.37704e+00  2.12763e+00  1.11407e+01
       O -8.19733e+00  9.52100e+00  1.30360e+01
       H -8.26008e+00  7.59739e+00  1.36427e+01
       H -8.31958e+00  9.55883e+00  1.11575e+01
       O -4.53954e+00  2.57792e+00  7.58245e+00
       H -6.14411e+00  3.53539e+00  7.32197e+00
       H -3.09456e+00  3.45944e+00  7.11501e+00
       O  8.20034e+00  9.88901e+00  7.56484e+00
       H  6.72658e+00  1.10214e+01  7.33200e+00
       H -7.31160e+00  1.08285e+01  7.25902e+00
       O  8.19181e+00  5.22362e+00  6.15451e+00
       H  8.36589e+00  5.37636e+00  4.21036e+00
       H  8.35107e+00  7.13417e+00  6.89050e+00
       O -4.54275e+00  1.26045e+01  6.14833e+00
       H -4.38493e+00  1.25605e+01  4.28550e+00
       H -4.50301e+00  1.43357e+01  6.69200e+00
       O  3.12204e-01 -9.91777e+00 -1.31784e+01
       H -1.19818e+00 -1.09665e+01 -1.35086e+01
       H  1.80899e+00 -1.08377e+01 -1.33396e+01
       O  4.55412e+00 -2.57728e+00 -1.31449e+01
       H  3.19330e+00 -3.64996e+00 -1.35939e+01
       H  6.21283e+00 -3.60693e+00 -1.34544e+01
       O  4.57864e+00 -1.25494e+01 -7.46347e-01
       H  4.68270e+00 -1.43400e+01 -1.95023e-01
       H  4.32860e+00 -1.25194e+01 -2.51412e+00
       O  2.90275e-01 -5.15198e+00 -7.76360e-01
       H  5.04154e-01 -7.11128e+00 -2.06901e-01
       H  1.55011e-01 -5.26078e+00 -2.75512e+00
       O  3.94777e+00 -1.21334e+01 -6.25272e+00
       H  2.43914e+00 -1.09402e+01 -6.27445e+00
       H  5.58097e+00 -1.11897e+01 -6.74648e+00
       O -3.02010e-01 -4.78899e+00 -6.24489e+00
       H -1.86386e+00 -3.81681e+00 -6.58919e+00
       H  1.22819e+00 -3.56208e+00 -6.66264e+00
       O -2.71386e-01 -9.56925e+00 -7.69677e+00
       H -1.49212e-01 -9.62005e+00 -9.45743e+00
       H -3.36223e-01 -7.69450e+00 -7.20849e+00
       O  3.96037e+00 -2.14178e+00 -7.70166e+00
       H  4.28403e+00 -2.29465e+00 -9.40783e+00
       H  4.06086e+00 -4.28241e-01 -7.02832e+00
       O  2.99643e-01 -9.92826e+00  6.81238e-01
       H -9.74870e-01 -1.08776e+01  2.28093e-01
       H  1.75911e+00 -1.08945e+01  2.48334e-01
       O  4.50567e+00 -2.57484e+00  6.78400e-01
       H  2.97332e+00 -3.59782e+00  2.76497e-01
       H  6.03563e+00 -3.49092e+00  4.17634e-01
       O  4.56825e+00 -1.25193e+01  1.30720e+01
       H  4.51735e+00 -1.43328e+01  1.35994e+01
       H  4.21808e+00 -1.25328e+01  1.12847e+01
       O  3.22570e-01 -5.12154e+00  1.30510e+01
       H  3.22038e-01 -6.98534e+00  1.34883e+01
       H  1.06544e-01 -5.17721e+00  1.12570e+01
       O  3.96329e+00 -1.21533e+01  7.57970e+00
       H  2.49968e+00 -1.11589e+01  7.29121e+00
       H  5.31742e+00 -1.10560e+01  7.14329e+00
       O -2.72987e-01 -4.80753e+00  7.54964e+00
       H -1.91482e+00 -3.70019e+00  7.16985e+00
       H  1.28443e+00 -3.79731e+00  7.11638e+00
       O -3.09140e-01 -9.49792e+00  6.10291e+00
       H -1.22317e-01 -9.58300e+00  4.38704e+00
       H -2.96617e-01 -7.76277e+00  6.63817e+00
       O  3.95658e+00 -2.17094e+00  6.15321e+00
       H  4.08755e+00 -2.11244e+00  4.38261e+00
       H  3.98860e+00 -2.96851e-01  6.64819e+00
       O  2.78986e-01  4.75387e+00 -1.31418e+01
       H -1.12099e+00  3.79453e+00 -1.37544e+01
       H  1.76807e+00  3.80023e+00 -1.34893e+01
       O  4.50317e+00  1.21233e+01 -1.31520e+01
       H  3.01970e+00  1.10544e+01 -1.37433e+01
       H  6.02400e+00  1.10908e+01 -1.33464e+01
       O  4.54945e+00  2.17254e+00 -7.88139e-01
       H  4.47830e+00  4.20788e-01 -2.39583e-01
       H  4.32191e+00  2.02781e+00 -2.44997e+00
       O  3.24980e-01  9.48542e+00 -7.68103e-01
       H  2.91797e-01  7.56768e+00 -2.33474e-01
       H  1.34534e-01  9.61500e+00 -2.50587e+00
       O  3.94237e+00  2.60795e+00 -6.23174e+00
       H  2.51376e+00  3.56367e+00 -6.54444e+00
       H  5.51622e+00  3.42617e+00 -6.55434e+00
       O -2.84440e-01  9.93931e+00 -6.30739e+00
       H -1.80354e+00  1.08266e+01 -6.60829e+00
       H  1.25611e+00  1.09196e+01 -6.92251e+00
       O -3.15810e-01  5.20305e+00 -7.68405e+00
       H -3.61295e-02  5.39043e+00 -9.67701e+00
       H -1.54479e-01  7.09976e+00 -7.20252e+00
       O  3.95346e+00  1.25396e+01 -7.70445e+00
       H  4.12863e+00  1.25853e+01 -9.64850e+00
       H  4.00528e+00  1.44367e+01 -7.20820e+00
       O  3.02014e-01  4.78238e+00  6.27929e-01
       H -1.21034e+00  3.86366e+00  2.49663e-01
       H  1.87890e+00  3.75374e+00  5.08678e-01
       O  4.51298e+00  1.21577e+01  6.73322e-01
       H  3.07590e+00  1.10579e+01  2.69412e-01
       H  6.10725e+00  1.11483e+01  3.30353e-01
       O  4.53722e+00  2.18357e+00  1.30543e+01
       H  4.51757e+00  2.94374e-01  1.36479e+01
       H  4.34063e+00  2.23956e+00  1.12682e+01
       O  3.11103e-01  9.49513e+00  1.29935e+01
       H  2.31727e-01  7.76726e+00  1.37578e+01
       H  7.90261e-02  9.65244e+00  1.10710e+01
       O  3.93981e+00  2.61359e+00  7.59873e+00
       H  2.49148e+00  3.53221e+00  7.40040e+00
       H  5.47998e+00  3.59384e+00  7.04907e+00
       O -2.94961e-01  9.94693e+00  7.62962e+00
       H -1.68433e+00  1.07861e+01  7.43997e+00
       H  1.15221e+00  1.10616e+01  6.97886e+00
       O -3.32015e-01  5.19353e+00  6.16221e+00
       H -2.09672e-01  5.29006e+00  4.31709e+00
       H -3.03064e-01  6.76870e+00  6.69243e+00
       O  3.92500e+00  1.25179e+01  6.12681e+00
       H  4.22216e+00  1.25843e+01  4.24846e+00
       H  4.01911e+00  1.45113e+01  6.51190e+00
192
# CELL(abcABC):   16.99620    29.43815    27.67315    90.00000    90.00000    90.00000  Step:          20  Bead:       2 positions{atomic_unit}  cell{atomic_unit}
       O -8.19484e+00 -9.97988e+00 -1.32044e+01
       H  7.25217e+00 -1.08819e+01 -1.35421e+01
       H -6.72789e+00 -1.10795e+01 -1.38358e+01
       O -3.92025e+00 -2.49821e+00 -1.31941e+01
       H -5.64517e+00 -3.66753e+00 -1.38702e+01
       H -2.41292e+00 -3.81265e+00 -1.36304e+01
       O -3.90976e+00 -1.25927e+01 -7.69894e-01
       H -3.85469e+00 -1.42851e+01 -4.16908e-01
       H -4.12740e+00 -1.24305e+01 -2.47550e+00
       O -8.19396e+00 -5.15714e+00 -7.58623e-01
       H -8.28274e+00 -6.99268e+00 -2.63727e-01
       H -8.57394e+00 -4.92558e+00 -2.58718e+00
       O -4.52243e+00 -1.21031e+01 -6.27393e+00
       H -6.24541e+00 -1.10768e+01 -6.81187e+00
       H -2.81125e+00 -1.11929e+01 -6.56821e+00
       O  8.17192e+00 -4.76337e+00 -6.27646e+00
       H  6.66848e+00 -3.69803e+00 -6.64144e+00
       H -7.58118e+00 -3.73974e+00 -6.66014e+00
       O  8.21593e+00 -9.53303e+00 -7.73362e+00
       H  8.29923e+00 -9.47925e+00 -9.70925e+00
       H  8.16642e+00 -7.76351e+00 -7.20597e+00
       O -4.51726e+00 -2.20889e+00 -7.69704e+00
       H -4.24326e+00 -2.07134e+00 -9.50761e+00
       H -4.55791e+00 -5.08377e-01 -7.19598e+00
       O -8.25239e+00 -9.92757e+00  6.51597e-01
       H  7.19729e+00 -1.10580e+01  1.85661e-01
       H -6.95442e+00 -1.09738e+01  1.79988e-01
       O -3.98881e+00 -2.58671e+00  7.15346e-01
       H -5.17028e+00 -3.78519e+00  3.98185e-01
       H -2.63524e+00 -3.91605e+00  5.12586e-01
       O -3.93727e+00 -1.25443e+01  1.30319e+01
       H -4.23538e+00 -1.44018e+01  1.33797e+01
       H -4.14323e+00 -1.28367e+01  1.12936e+01
       O -8.22268e+00 -5.18206e+00  1.30435e+01
       H -8.12170e+00 -7.06879e+00  1.36858e+01
       H -8.09311e+00 -5.38185e+00  1.11758e+01
       O -4.46240e+00 -1.21595e+01  7.50093e+00
       H -5.85214e+00 -1.12515e+01  7.20118e+00
       H -3.15482e+00 -1.11581e+01  7.28621e+00
       O  8.25115e+00 -4.79308e+00  7.57862e+00
       H  6.89929e+00 -3.83706e+00  7.47676e+00
       H -7.26583e+00 -3.87454e+00  7.02767e+00
       O  8.19537e+00 -9.47461e+00  6.10443e+00
       H  8.29752e+00 -9.53802e+00  4.24104e+00
       H  8.16683e+00 -7.56515e+00  6.67635e+00
       O -4.55270e+00 -2.12010e+00  6.15454e+00
       H -4.25687e+00 -2.22146e+00  4.39068e+00
       H -4.38557e+00 -3.31071e-01  6.79673e+00
       O -8.19458e+00  4.77897e+00 -1.31690e+01
       H  7.35115e+00  3.69970e+00 -1.36597e+01
       H -6.51578e+00  3.90425e+00 -1.33979e+01
       O -4.00005e+00  1.22066e+01 -1.31651e+01
       H -5.47547e+00  1.11623e+01 -1.36047e+01
       H -2.73271e+00  1.09977e+01 -1.35840e+01
       O -3.93047e+00  2.16280e+00 -8.18783e-01
       H -4.23891e+00  4.02373e-01 -3.85239e-01
       H -4.28063e+00  2.13294e+00 -2.59569e+00
       O -8.22293e+00  9.49583e+00 -7.79825e-01
       H -8.21062e+00  7.80868e+00  1.29074e-02
       H -8.44252e+00  9.30490e+00 -2.77337e+00
       O -4.56145e+00  2.55586e+00 -6.22764e+00
       H -6.18510e+00  3.54033e+00 -6.67913e+00
       H -3.20063e+00  3.40596e+00 -6.91203e+00
       O  8.19078e+00  9.94243e+00 -6.28310e+00
       H  6.57331e+00  1.09515e+01 -6.46405e+00
       H -7.26192e+00  1.09553e+01 -6.58452e+00
       O  8.28296e+00  5.19317e+00 -7.74265e+00
       H  8.36238e+00  5.27017e+00 -9.49809e+00
       H  8.15263e+00  7.07833e+00 -7.45134e+00
       O -4.56524e+00  1.25720e+01 -7.69450e+00
       H -4.58574e+00  1.23554e+01 -9.36188e+00
       H -4.30980e+00  1.42759e+01 -7.30444e+00
       O -8.30516e+00  4.82770e+00  6.80057e-01
       H  7.25186e+00  3.60706e+00  2.06309e-01
       H -6.76396e+00  3.79408e+00  1.78381e-01
       O -3.94091e+00  1.21721e+01  6.60178e-01
       H -5.75285e+00  1.11904e+01  5.15237e-01
       H -2.55695e+00  1.12135e+01  5.36710e-01
       O -3.96189e+00  2.13491e+00  1.30212e+01
       H -3.76948e+00  1.39618e-01  1.36859e+01
       H -4.37485e+00  2.20826e+00  1.12779e+01
       O -8.19945e+00  9.49465e+00  1.30349e+01
       H -8.24238e+00  7.63933e+00  1.35909e+01
       H -8.34444e+00  9.63974e+00  1.11608e+01
       O -4.53017e+00  2.56294e+00  7.61534e+00
       H -6.19377e+00  3.48112e+00  7.30011e+00
       H -3.17325e+00  3.30948e+00  7.09713e+00
       O  8.19456e+00  9.86876e+00  7.57170e+00
       H  6.63992e+00  1.11098e+01  7.25507e+00
       H -7.30528e+00  1.09115e+01  7.29318e+00
       O  8.20164e+00  5.23815e+00  6.15378e+00
       H  8.33310e+00  5.43637e+00  4.18422e+00
       H  8.29683e+00  6.96273e+00  6.87746e+00
       O -4.53762e+00  1.26002e+01  6.11611e+00
       H -4.53174e+00  1.25487e+01  4.22568e+00
       H -4.49773e+00  1.43027e+01  6.71312e+00
       O  3.37567e-01 -9.89665e+00 -1.32230e+01
       H -1.32656e+00 -1.08581e+01 -1.34414e+01
       H  1.92071e+00 -1.06765e+01 -1.32693e+01
       O  4.58640e+00 -2.61968e+00 -1.30907e+01
       H  3.25899e+00 -3.79146e+00 -1.34921e+01
       H  6.35256e+00 -3.69853e+00 -1.35794e+01
       O  4.59471e+00 -1.25911e+01 -7.39851e-01
       H  4.78051e+00 -1.44126e+01 -8.41692e-02
       H  4.31291e+00 -1.26200e+01 -2.55863e+00
       O  2.81228e-01 -5.16617e+00 -7.88990e-01
       H  4.18240e-01 -7.06929e+00 -2.15454e-03
       H  2.79591e-01 -5.21954e+00 -2.83125e+00
       O  3.92539e+00 -1.20897e+01 -6.25285e+00
       H  2.30340e+00 -1.08216e+01 -6.19843e+00
       H  5.33839e+00 -1.13241e+01 -6.88945e+00
       O -2.65503e-01 -4.80669e+00 -6.21934e+00
       H -1.83540e+00 -3.74338e+00 -6.69205e+00
       H  1.20356e+00 -3.57458e+00 -6.74130e+00
       O -2.90318e-01 -9.57157e+00 -7.67111e+00
       H -8.92207e-02 -9.73427e+00 -9.50659e+00
       H -4.85239e-01 -7.61369e+00 -7.29664e+00
       O  3.96688e+00 -2.13580e+00 -7.73809e+00
       H  4.35290e+00 -2.52843e+00 -9.15273e+00
       H  4.18564e+00 -3.87938e-01 -6.93861e+00
       O  2.90065e-01 -9.96179e+00  7.19987e-01
       H -9.78177e-01 -1.09603e+01  2.52215e-01
       H  1.65573e+00 -1.08669e+01  3.66978e-01
       O  4.48217e+00 -2.60807e+00  6.61288e-01
       H  2.91761e+00 -3.61892e+00  3.64223e-01
       H  6.22126e+00 -3.52824e+00  5.10972e-01
       O  4.56796e+00 -1.25383e+01  1.30376e+01
       H  4.55505e+00 -1.42619e+01  1.35998e+01
       H  4.45240e+00 -1.26046e+01  1.12507e+01
       O  3.02010e-01 -5.15383e+00  1.30803e+01
       H  1.69942e-01 -6.95540e+00  1.34710e+01
       H  2.21266e-01 -5.06643e+00  1.13585e+01
       O  3.95531e+00 -1.21325e+01  7.56617e+00
       H  2.69732e+00 -1.11798e+01  7.35480e+00
       H  5.19398e+00 -1.10767e+01  7.18824e+00
       O -2.49900e-01 -4.82390e+00  7.51792e+00
       H -1.86058e+00 -3.82695e+00  7.04691e+00
       H  1.24989e+00 -3.76713e+00  7.07394e+00
       O -2.99193e-01 -9.47472e+00  6.12281e+00
       H -2.64640e-01 -9.55683e+00  4.38766e+00
       H -2.35441e-01 -7.81230e+00  6.63185e+00
       O  3.95267e+00 -2.15142e+00  6.14218e+00
       H  4.06289e+00 -2.00359e+00  4.17389e+00
       H  3.93155e+00 -3.28791e-01  6.75009e+00
       O  2.87334e-01  4.73549e+00 -1.31272e+01
       H -1.21854e+00  3.72765e+00 -1.36815e+01
       H  1.62732e+00  3.72723e+00 -1.33945e+01
       O  4.48029e+00  1.21218e+01 -1.31587e+01
       H  3.04897e+00  1.10859e+01 -1.37804e+01
       H  5.94244e+00  1.11764e+01 -1.35685e+01
       O  4.55841e+00  2.16908e+00 -7.79235e-01
       H  4.49483e+00  4.01521e-01 -1.93473e-01
       H  4.26118e+00  2.17990e+00 -2.33904e+00
       O  2.86421e-01  9.44663e+00 -7.48016e-01
       H  2.55284e-01  7.46666e+00 -1.63812e-01
       H  1.45649e-01  9.44326e+00 -2.53434e+00
       O  3.97159e+00  2.64224e+00 -6.22308e+00
       H  2.57859e+00  3.55675e+00 -6.43317e+00
       H  5.50745e+00  3.59826e+00 -6.52081e+00
       O -2.78830e-01  9.92629e+00 -6.31451e+00
       H -1.80831e+00  1.08823e+01 -6.79165e+00
       H  1.26493e+00  1.09622e+01 -7.01534e+00
       O -3.13338e-01  5.21473e+00 -7.68326e+00
       H -1.19296e-02  5.44103e+00 -9.77916e+00
       H -1.64216e-01  7.02182e+00 -7.19505e+00
       O  3.97459e+00  1.25633e+01 -7.70730e+00
       H  4.13672e+00  1.25996e+01 -9.55131e+00
       H  3.92871e+00  1.45728e+01 -7.26929e+00
       O  2.62272e-01  4.77071e+00  6.21756e-01
       H -1.28279e+00  3.89794e+00  2.30786e-01
       H  1.80434e+00  3.78768e+00  4.54670e-01
       O  4.49308e+00  1.21184e+01  6.81409e-01
       H  3.06277e+00  1.10426e+01  3.17602e-01
       H  6.14657e+00  1.10976e+01  3.33206e-01
       O  4.54131e+00  2.21964e+00  1.30756e+01
       H  4.46953e+00  3.63098e-01  1.36673e+01
       H  4.39916e+00  2.28850e+00  1.13514e+01
       O  2.80094e-01  9.52715e+00  1.29777e+01
       H  2.10392e-01  7.87074e+00  1.37720e+01
       H  9.40563e-02  9.54672e+00  1.12031e+01
       O  3.91535e+00  2.61762e+00  7.54523e+00
       H  2.34441e+00  3.53531e+00  7.40241e+00
       H  5.67860e+00  3.51374e+00  7.10410e+00
       O -2.60431e-01  9.91951e+00  7.64074e+00
       H -1.79955e+00  1.08844e+01  7.50791e+00
       H  9.56276e-01  1.09778e+01  6.90308e+00
       O -3.32141e-01  5.19481e+00  6.17110e+00
       H -1.64997e-01  5.19927e+00  4.32665e+00
       H -2.44303e-01  6.99426e+00  6.59241e+00
       O  3.93133e+00  1.25593e+01  6.14456e+00
       H  4.11794e+00  1.25212e+01  4.34380e+00
       H  3.90310e+00  1.44982e+01  6.56016e+00
192
# CELL(abcABC):   16.99620    29.43815    27.67315    90.00000    90.00000    90.00000  Step:          30  Bead:       2 positions{atomic_unit}  cell{atomic_unit}
       O -8.16868e+00 -9.94605e+00 -1.32129e+01
       H  7.20559e+00 -1.09372e+01 -1.34608e+01
       H -6.70663e+00 -1.11549e+01 -1.39567e+01
       O -3.92194e+00 -2.54985e+00 -1.31691e+01
       H -5.48036e+00 -3.77489e+00 -1.38993e+01
       H -2.41807e+00 -3.77851e+00 -1.36185e+01
       O -3.90586e+00 -1.26416e+01 -7.80368e-01
       H -4.09770e+00 -1.43602e+01 -4.85452e-01
       H -4.31658e+00 -1.23740e+01 -2.60808e+00
       O -8.22346e+00 -5.16588e+00 -8.05701e-01
       H -8.18420e+00 -7.09135e+00 -3.11111e-01
       H -8.62898e+00 -4.98600e+00 -2.49834e+00
       O -4.52455e+00 -1.20657e+01 -6.25727e+00
       H -6.22952e+00 -1.11064e+01 -6.79493e+00
       H -2.83863e+00 -1.14403e+01 -6.57230e+00
       O  8.18348e+00 -4.75615e+00 -6.25866e+00
       H  6.73764e+00 -3.53684e+00 -6.63590e+00
       H -7.63322e+00 -3.68388e+00 -6.74831e+00
       O  8.21765e+00 -9.56292e+00 -7.76464e+00
       H  8.29832e+00 -9.35807e+00 -9.69579e+00
       H  8.03118e+00 -7.78011e+00 -7.31567e+00
       O -4.52347e+00 -2.21546e+00 -7.68183e+00
       H -4.49129e+00 -2.00266e+00 -9.58759e+00
       H -4.51190e+00 -3.72932e-01 -7.18467e+00
       O -8.33531e+00 -9.92310e+00  6.11407e-01
       H  7.02598e+00 -1.12446e+01  2.90961e-01
       H -6.73393e+00 -1.09248e+01  1.79433e-01
       O -3.95651e+00 -2.57545e+00  7.45432e-01
       H -5.06888e+00 -3.67413e+00  3.06112e-01
       H -2.65888e+00 -3.76180e+00  4.68672e-01
       O -3.95010e+00 -1.24750e+01  1.29973e+01
       H -4.26675e+00 -1.42919e+01  1.34952e+01
       H -4.20381e+00 -1.28990e+01  1.11915e+01
       O -8.20943e+00 -5.16646e+00  1.30106e+01
       H -8.11697e+00 -7.06931e+00  1.35397e+01