192
# CELL(abcABC):   16.99620    29.43815    27.67315    90.00000    90.00000    90.00000  Step:           0  Bead:       6 velocities{atomic_unit}  cell{atomic_unit}
       O  8.42421e-05  5.97376e-04 -7.29141e-04
       H -6.45178e-03 -1.01431e-03 -4.70651e-03
       H -2.07852e-04  3.56510e-03  2.15740e-03
       O -1.37036e-03  6.39966e-04  2.69709e-04
       H  3.30135e-03 -1.27997e-03 -5.71004e-04
       H -4.12554e-03  9.76796e-04 -6.01506e-03
       O  1.82090e-03 -1.64185e-04  8.56555e-04
       H  2.41403e-03  1.31501e-03  4.81886e-03
       H -1.70381e-03 -5.48627e-03 -1.23509e-03
       O  1.04649e-03 -5.41884e-07 -5.40511e-04
       H  3.08055e-03 -8.96895e-04  2.64183e-03
       H -5.04837e-03 -5.08724e-03 -2.39654e-04
       O -1.10926e-04  5.87139e-06  6.11117e-04
       H -3.34599e-03  1.94122e-03 -1.07435e-03
       H  1.55042e-03  4.05711e-03  3.68815e-03
       O -1.30684e-04  5.25625e-04 -9.59778e-04
       H  3.12610e-03 -2.54941e-03 -1.45582e-04
       H -6.18351e-03 -1.91767e-03  4.47433e-03
       O -1.86132e-04 -8.57229e-04  2.38075e-03
       H  3.09582e-03 -1.74020e-03  3.04604e-03
       H -1.61496e-04 -2.29102e-04  2.18466e-03
       O  3.17828e-04 -1.64007e-03  8.24888e-04
       H  3.53087e-03 -3.08756e-03  3.38196e-03
       H -4.02130e-03 -3.23457e-03 -6.05916e-05
       O -4.57741e-04 -1.23054e-03 -1.47506e-03
       H -3.98100e-03 -5.40380e-03  9.43201e-04
       H -1.51156e-03  3.13570e-03 -5.82639e-04
       O  8.00937e-05 -2.55375e-04 -1.02593e-04
       H  9.51323e-04 -7.53301e-03  3.02855e-03
       H  1.50194e-03  2.66359e-03  5.22749e-03
       O  6.58843e-04 -5.14259e-04 -6.54709e-04
       H  4.37168e-03  4.93214e-03  1.71962e-03
       H -7.43643e-04  1.21397e-04 -2.16580e-03
       O  1.12770e-03  2.28243e-03 -2.24824e-04
       H -5.35641e-03  4.46762e-03 -3.42017e-03
       H -2.40627e-03 -2.31431e-03 -3.19048e-03
       O -8.48908e-05  1.54444e-04  3.22532e-04
       H  3.18634e-03  2.54964e-03 -2.60499e-03
       H -3.39334e-03  2.11213e-03  5.18919e-03
       O -9.02262e-04 -1.10051e-03 -5.78729e-05
       H -2.23700e-03  3.79818e-03  3.33962e-03
       H  2.72116e-04 -2.46673e-05  8.05070e-05
       O -8.50812e-04  6.78670e-04  2.88223e-04
       H  5.17984e-03 -3.41610e-04 -4.02009e-03
       H -4.07637e-03 -1.06424e-03  5.20665e-03
       O -1.15540e-03  1.10083e-04 -1.59534e-03
       H -5.31148e-03  2.72306e-03  2.20444e-03
       H  5.75865e-03 -3.31148e-03 -2.75290e-03
       O -7.19632e-04 -1.57451e-03 -6.72997e-04
       H -3.40385e-03 -1.28680e-03 -4.72370e-03
       H  2.45211e-03  1.13284e-03 -1.04053e-03
       O  1.88990e-04 -4.76704e-04 -6.29751e-04
       H  6.46548e-03  8.30596e-03  2.50705e-03
       H -1.73071e-03  4.33800e-03  6.16316e-03
       O -1.51302e-03  8.78049e-04 -2.50921e-04
       H -6.07900e-03  1.95013e-03 -5.22252e-03
       H -2.63442e-03  7.32035e-03 -9.95086e-04
       O  1.17039e-04 -1.24081e-03  4.61808e-04
       H  8.72944e-04  2.66441e-03 -3.47511e-03
       H -1.66049e-03  7.80760e-03  2.84376e-03
       O  3.50960e-04 -7.37088e-04 -1.72116e-03
       H  4.78013e-03  7.52319e-04  4.30618e-03
       H  7.71166e-04 -4.48183e-03  1.04773e-03
       O  7.29064e-04  4.28371e-04  1.83943e-04
       H -2.06965e-03 -6.39755e-03  2.73692e-03
       H  6.00401e-03  5.19677e-03  9.58917e-04
       O  2.05784e-04 -3.69330e-05 -1.36177e-04
       H  4.71450e-04 -2.93497e-03  6.00749e-03
       H  7.50930e-04  3.57056e-04  3.61140e-03
       O  1.85546e-04 -2.08470e-03 -1.06236e-03
       H -2.14083e-03 -2.12363e-03 -2.25609e-04
       H  2.72177e-04  1.03962e-02 -6.10023e-03
       O -1.19682e-03 -1.90946e-03  9.83050e-04
       H -4.78064e-03 -3.01882e-03  1.99664e-03
       H -1.96324e-03 -3.58940e-03  5.00329e-03
       O -5.65870e-04  1.15075e-03 -5.45266e-04
       H -1.96558e-03 -1.96627e-03  5.02353e-03
       H -1.94530e-04  1.39191e-03 -2.48334e-03
       O -1.31397e-03  9.14549e-04 -3.36886e-04
       H -1.31032e-03 -3.31515e-03  2.30247e-03
       H -3.01833e-03  1.62328e-03  1.61709e-03
       O  6.54905e-04 -1.17532e-03 -3.61289e-04
       H -6.92234e-03 -8.25438e-04  2.22736e-03
       H  1.97787e-03  2.04748e-04 -1.41080e-03
       O  2.40510e-03 -1.43637e-03 -6.54856e-04
       H -1.56862e-03  6.72572e-04 -2.41007e-03
       H  4.05141e-03 -5.97217e-04  9.15582e-04
       O  1.13034e-03  1.43701e-03 -2.68764e-05
       H -2.04631e-03  3.25120e-04  2.81174e-03
       H -6.45178e-03 -2.97372e-03 -2.66948e-03
       O  2.83836e-04  3.09160e-04 -1.60366e-03
       H -4.55262e-03 -6.63630e-03 -7.17946e-04
       H -2.63391e-03 -4.12644e-03 -7.73806e-04
       O  3.43946e-06 -4.79736e-04  1.79928e-04
       H  5.23498e-03  2.30529e-03 -8.96733e-04
       H  6.55307e-03 -8.77643e-04  2.98568e-03
       O -2.79869e-04 -4.24231e-04  1.38356e-03
       H  8.87296e-04 -6.08504e-03  3.03203e-03
       H -3.24400e-03 -8.18482e-04  1.16183e-03
       O -2.19445e-03 -1.28097e-04  1.28118e-04
       H -2.10755e-03 -7.14887e-04  7.38974e-04
       H  2.91546e-03 -4.76328e-03 -1.81459e-04
       O  1.16063e-03 -4.62464e-04  2.53401e-04
       H  3.57610e-03 -4.88595e-03  9.58110e-03
       H -2.96962e-03  3.00441e-03 -2.19118e-03
       O  2.10114e-03  8.90318e-04  1.59745e-03
       H -1.88701e-03  1.02054e-02  2.51483e-03
       H -6.22613e-03 -2.01930e-03 -5.13284e-03
       O -1.35471e-05  7.73311e-04  4.54613e-04
       H -1.44485e-03 -5.12760e-03  5.70509e-03
       H -7.30809e-03 -4.70726e-03 -1.15480e-02
       O  4.36446e-04  7.18011e-04  9.31050e-04
       H -3.30377e-03 -5.48548e-04 -6.66704e-03
       H -4.07175e-03 -3.31149e-03 -5.24023e-03
       O -7.25364e-04 -5.61007e-04 -1.18692e-03
       H  2.33427e-03  2.41585e-03  6.99075e-03
       H -1.68227e-03  1.51225e-03 -5.88078e-04
       O -9.44385e-04  2.98389e-04  9.90468e-05
       H -8.58085e-04 -3.84266e-03 -5.06763e-05
       H  1.47428e-03 -3.51844e-03 -4.21872e-03
       O -2.52462e-03 -1.15048e-03 -1.81338e-04
       H  4.53948e-04  1.27485e-03 -1.43270e-03
       H -2.07323e-03 -5.37533e-03 -3.95362e-03
       O -6.14675e-04 -6.27188e-04 -6.07361e-04
       H  2.62947e-03 -8.94860e-04 -1.74973e-03
       H -2.42265e-03  1.97279e-03  1.14249e-04
       O  6.83676e-04 -8.32431e-04 -8.05368e-04
       H -3.02340e-03 -1.86726e-03 -3.31331e-03
       H -3.55738e-03 -3.51133e-04 -6.16494e-04
       O -6.40598e-04 -8.78428e-04 -9.16312e-04
       H -2.75972e-03 -2.81625e-04 -7.59582e-03
       H -7.09786e-03 -3.99254e-03 -1.85840e-04
       O -6.64018e-04 -1.16918e-03 -7.25598e-04
       H -1.94621e-03 -4.33720e-03  4.14099e-04
       H -6.07170e-03  5.74430e-04 -3.11473e-03
       O  9.38293e-04  9.48328e-04  9.61824e-04
       H -7.51051e-03  1.40243e-03  6.61987e-05
       H -6.52588e-06  3.34333e-03  2.25193e-03
       O  2.14191e-04 -4.69330e-04 -1.36772e-03
       H -2.52087e-03 -1.64382e-03  1.54223e-03
       H  8.36611e-04  1.78602e-03 -5.17537e-03
       O  1.28810e-03 -1.01630e-03 -5.64078e-04
       H -2.70243e-04 -3.98977e-04  3.04513e-03
       H -1.64662e-03  6.25904e-05 -2.97197e-03
       O -1.74590e-03 -4.75372e-04 -2.55085e-04
       H  2.73354e-03 -4.16579e-03 -9.38687e-04
       H  2.58817e-05  5.28036e-03 -7.23201e-03
       O  2.35467e-04 -2.06773e-04  1.46518e-03
       H  1.29019e-03 -3.22821e-03 -2.36848e-03
       H -1.39976e-03 -4.16144e-03  5.93277e-04
       O  1.00724e-04 -2.16426e-04  3.48412e-04
       H -8.58785e-04 -1.86570e-03  2.94071e-03
       H -5.62149e-03  1.93930e-03  4.16854e-03
       O -3.38052e-04 -8.41104e-05  3.33283e-04
       H  9.30003e-04 -4.39377e-03  9.02346e-03
       H  3.02252e-03 -2.39589e-04 -1.69954e-03
       O  9.41940e-05  8.78718e-04  1.11961e-03
       H -3.95231e-03 -5.93793e-03  4.90271e-03
       H -8.69599e-05 -2.85248e-04 -3.14440e-03
       O  9.65740e-04  6.37441e-04  3.80849e-05
       H -1.21110e-03 -1.84500e-03 -3.97404e-03
       H  1.44615e-03 -2.81247e-03 -4.72256e-04
       O  1.62640e-04  9.58381e-04 -3.44548e-04
       H -3.14165e-03  4.23919e-03  5.75243e-03
       H -1.54431e-03  2.05934e-03 -1.63466e-03
       O  8.64500e-04 -2.91314e-05 -1.90855e-03
       H  2.69898e-03  2.88296e-03  5.13288e-03
       H  2.68902e-03 -3.97341e-03 -1.19413e-03
       O -4.34738e-04  1.68768e-04 -3.40924e-04
       H -6.49572e-03 -1.61370e-03  3.96405e-03
       H  3.89142e-03 -1.82832e-03  2.28160e-04
       O -2.29505e-04  4.36105e-04  1.16808e-03
       H  1.84298e-04  7.17665e-03 -2.46615e-04
       H  1.58143e-03  5.87159e-03 -4.93455e-03
       O  7.57043e-04  9.85780e-04 -1.34958e-04
       H -2.31943e-03  2.64241e-03 -3.91348e-03
       H  4.58552e-03 -3.34001e-03  3.81699e-03
       O  5.99692e-04 -4.58684e-04 -1.50640e-03
       H  1.95882e-03 -2.14143e-03  1.96187e-03
       H -7.25787e-03  3.69248e-04  8.13684e-03
       O  1.42734e-03  1.17198e-04  9.59158e-05
       H  7.34122e-04 -4.52515e-03 -1.20747e-03
       H -1.33241e-03 -4.83683e-03  2.67676e-03
       O  1.31141e-03  1.22893e-04  1.37252e-03
       H  2.78507e-03  3.59645e-03  2.98213e-03
       H -3.26317e-04  1.03395e-03  5.68144e-03
       O -2.33039e-05  5.54686e-04 -1.66457e-03
       H -6.60773e-03 -1.36558e-03 -3.33974e-03
       H  1.59795e-03 -1.19079e-03  3.25033e-03
       O -1.27520e-04 -1.49346e-03 -9.22964e-04
       H  2.24734e-03  1.44953e-03  2.04379e-04
       H -6.23964e-03  6.07185e-03  3.41360e-03
192
# CELL(abcABC):   16.99620    29.43815    27.67315    90.00000    90.00000    90.00000  Step:          10  Bead:       6 velocities{atomic_unit}  cell{atomic_unit}
       O  3.40932e-05  7.38655e-04  1.06147e-03
       H  2.41303e-03 -2.50817e-03  1.89776e-03
       H  1.64655e-03 -7.39351e-04 -3.72027e-03
       O -3.16925e-04  1.99322e-04 -1.80965e-03
       H -1.33957e-03 -1.32120e-03 -3.27643e-03
       H  3.75241e-03  8.96892e-03 -4.16226e-03
       O -1.52398e-03  2.27333e-04 -1.82423e-03
       H  3.99110e-03 -1.07696e-03 -1.21881e-03
       H  1.53611e-03 -5.18586e-03 -1.47331e-03
       O -8.86293e-04 -5.26828e-04 -6.15845e-04
       H  2.69735e-03  1.76894e-03  4.89364e-03
       H -4.55038e-03  5.61773e-04  3.17802e-03
       O  3.55611e-04  6.53790e-04 -1.77272e-03
       H -3.81618e-03 -5.21779e-03 -3.16015e-03
       H  4.69108e-03 -6.75874e-03  4.90082e-03
       O  1.10835e-04  1.19039e-03 -4.91430e-04
       H -2.54368e-03  6.13597e-04  1.86517e-03
       H  5.72162e-03  6.63366e-03  3.52537e-03
       O  2.15469e-04  2.14356e-04  7.23932e-04
       H -1.84647e-03  1.53543e-03  2.28241e-03
       H  3.09223e-04  5.87412e-04 -4.60397e-04
       O  3.82554e-04  2.33427e-04  2.83814e-04
       H  2.27464e-03 -7.56361e-04  2.82642e-03
       H -5.70120e-04  1.13582e-03  7.35507e-03
       O -2.75428e-04 -8.66222e-04  1.34133e-03
       H -1.18591e-03 -1.18132e-03 -1.34093e-04
       H  4.10170e-03 -9.84144e-03 -2.76622e-03
       O  4.27857e-04 -1.20235e-04 -9.88912e-04
       H -5.73770e-04 -1.09310e-03  6.19487e-03
       H  4.63187e-04 -6.91553e-03 -1.59898e-03
       O  8.25579e-04 -5.42218e-04 -5.76519e-05
       H  2.20876e-03  1.37136e-03  1.62846e-03
       H -4.91794e-03  1.92965e-03 -4.59027e-03
       O -1.64190e-05 -6.61970e-04  5.39676e-04
       H -2.86717e-03 -3.39774e-03  2.79591e-04
       H -1.42701e-03 -5.74763e-03  3.38262e-04
       O  5.16505e-04 -9.72423e-04  5.18525e-04
       H -2.93730e-03  6.86285e-03  2.83270e-03
       H -2.30643e-03  6.18770e-03  2.74507e-03
       O -1.33108e-04  9.68081e-04 -7.73731e-05
       H  5.28849e-03 -8.15900e-03  1.26425e-03
       H -1.93003e-03  1.97908e-03  4.67907e-03
       O -1.63337e-04 -3.87053e-04 -2.60072e-04
       H  3.55826e-03 -5.01048e-03  4.61862e-03
       H -4.18729e-03 -3.97382e-03 -7.17388e-03
       O -1.50117e-04  6.32533e-04 -7.87032e-04
       H -1.59711e-03  2.52991e-03  7.63155e-03
       H  3.68734e-03  4.07304e-04 -1.24870e-03
       O -1.09441e-03 -8.76244e-04 -7.10639e-04
       H -8.35788e-04  1.82665e-03 -3.29483e-03
       H  1.52144e-03  4.25080e-03  1.73120e-03
       O -2.95304e-04 -2.16449e-04  1.48951e-03
       H  3.87876e-03 -1.03454e-03  3.13666e-04
       H -4.19162e-03  2.53925e-03  1.07847e-03
       O  9.48164e-04 -3.34949e-04 -1.67430e-03
       H -1.31874e-03  3.01388e-03  5.02465e-03
       H -4.38324e-03  1.69085e-04  2.63154e-04
       O -3.50877e-04 -1.94079e-04  7.17322e-05
       H -4.03421e-03 -2.03932e-03  3.93504e-04
       H  4.72179e-04  6.82233e-04 -1.47034e-03
       O  1.98109e-03  1.03698e-04  8.75210e-04
       H -3.75165e-03 -3.14399e-03 -4.11865e-03
       H  1.68396e-05 -5.05138e-03 -3.49547e-03
       O  1.35221e-03 -8.91389e-04 -1.48164e-04
       H  2.13257e-03  1.21832e-03 -2.68991e-04
       H  3.28501e-03 -3.37242e-04  1.45043e-03
       O -1.00113e-03  1.18741e-03 -3.73039e-04
       H  3.36222e-03  2.66425e-03 -2.42057e-04
       H  1.20240e-03  4.37616e-04 -3.84713e-03
       O -5.11824e-04  6.45979e-04  1.02998e-03
       H  6.41673e-04  2.02840e-03 -4.45620e-03
       H -6.77063e-03  7.94015e-03 -2.18716e-03
       O -1.20384e-03 -3.60726e-04 -7.24078e-04
       H  8.38840e-04  4.19465e-03 -6.15612e-04
       H  6.91336e-03 -3.03503e-03 -4.14802e-03
       O  5.79052e-04  3.88386e-04  1.53632e-03
       H  1.04384e-03 -1.27317e-03 -5.77285e-03
       H -5.19676e-03  7.09256e-03 -6.44196e-04
       O -8.36696e-04 -1.15862e-03  6.31174e-04
       H -2.90806e-03 -4.43581e-03  2.47815e-03
       H -1.33190e-03 -1.42224e-03  4.11166e-03
       O -9.34735e-04  4.32858e-04 -7.30801e-04
       H  5.39393e-03 -3.38144e-03  5.68879e-03
       H  1.27164e-03  6.76044e-03 -7.27443e-03
       O  1.25388e-04  4.27580e-04 -1.63028e-04
       H -4.83900e-04 -5.79120e-03 -2.33122e-04
       H -1.48957e-03  3.29190e-04 -7.33990e-04
       O  3.10821e-04  5.32161e-04 -4.06934e-04
       H  1.76359e-03 -2.40940e-03 -3.30021e-03
       H -2.81889e-04  6.92298e-03  1.16699e-03
       O -8.00564e-04 -1.40022e-04 -6.96498e-04
       H -2.75273e-03 -1.78224e-03  1.56117e-03
       H  6.01556e-04 -5.35700e-04 -1.78095e-03
       O  1.49427e-03 -6.72171e-04 -9.96594e-04
       H  2.30494e-03 -7.30981e-04 -3.92512e-03
       H  4.72530e-03  7.75108e-03  1.99800e-03
       O  1.15778e-03  5.86062e-04 -1.09354e-04
       H  1.49453e-03 -5.66988e-03  4.22896e-03
       H -1.00079e-04 -3.09051e-03 -7.76198e-04
       O  7.24959e-04  9.30583e-04  1.18105e-03
       H -1.50133e-04  2.13475e-03  4.52935e-03
       H  2.51759e-03 -1.79166e-03  1.24128e-03
       O  4.34540e-04 -2.52293e-04  1.29593e-04
       H -8.36611e-04 -2.48457e-03  3.66510e-03
       H -3.27952e-03  6.42033e-03 -3.68632e-03
       O  4.24331e-04 -3.60346e-04 -4.11091e-04
       H -5.75687e-04  4.08510e-03  3.36369e-03
       H  5.22157e-03 -1.97008e-03  2.61205e-03
       O -4.07766e-04  5.30445e-04  2.41246e-05
       H -1.06224e-03  7.42310e-04  2.67732e-03
       H  3.41957e-03 -4.08136e-03 -4.81965e-03
       O  5.08203e-04 -9.05459e-04  7.57591e-04
       H -9.71232e-04  1.39980e-03  1.22632e-03
       H  4.69325e-03 -2.93341e-03  5.99213e-03
       O -1.81483e-03 -1.38227e-04  1.57878e-03
       H  2.36008e-03  1.87418e-05  3.75321e-04
       H  2.01994e-03 -1.00844e-04 -3.61116e-03
       O  2.67928e-04  2.65985e-04  2.37086e-03
       H  2.35556e-03 -4.96406e-03 -7.07127e-04
       H  1.60206e-03 -2.70706e-03  1.96454e-03
       O -1.40483e-03  1.18783e-03 -5.72261e-04
       H  1.14948e-03  6.85397e-05  1.58148e-03
       H -7.58061e-03 -6.62433e-04 -2.07390e-03
       O  1.83784e-03  1.00822e-03 -2.08207e-04
       H  3.20991e-03 -4.06997e-03  1.20072e-03
       H  5.67714e-03  1.16482e-03  2.46610e-04
       O -2.22381e-04  3.70792e-04  2.70649e-04
       H  2.61524e-03 -7.88191e-03 -2.83057e-03
       H -6.39981e-03 -3.66703e-04  2.04647e-03
       O -1.00922e-03  6.92185e-04  1.77140e-03
       H -4.77567e-03 -1.64535e-03  6.72443e-03
       H -4.54220e-03  2.19395e-03  6.62002e-04
       O -8.63523e-04  1.98232e-04  4.56047e-04
       H  7.42884e-03  3.63436e-03 -2.12711e-03
       H  2.47882e-03  2.96668e-03  2.39497e-03
       O  1.63915e-03  1.27611e-03  5.85712e-04
       H  2.74622e-04 -1.99662e-03  3.41194e-04
       H  4.88694e-03  1.86412e-03 -6.33626e-03
       O -1.27475e-03  2.81291e-04  2.44096e-04
       H  5.99062e-03  1.28209e-03 -2.21642e-03
       H -1.76106e-03  2.03976e-03 -9.84377e-03
       O  1.40179e-03  1.51860e-03 -1.19486e-03
       H  5.13824e-03 -1.56908e-03 -6.02055e-03
       H  8.62029e-04 -9.68846e-04 -3.95947e-03
       O -5.90024e-04  1.60219e-03  2.21413e-03
       H  1.38044e-04 -7.36624e-04 -2.86956e-03
       H -4.12325e-03  2.61905e-03  1.58386e-03
       O  4.56756e-04  1.03842e-03 -5.60910e-04
       H -3.19736e-03  2.08601e-03 -5.47884e-03
       H -1.15752e-03 -9.81483e-04 -4.66365e-03
       O -4.82275e-04  1.07350e-03  1.39505e-04
       H -8.53645e-03  9.43781e-03  7.45526e-03
       H  1.44867e-03 -2.73464e-03  2.61135e-03
       O -1.17171e-03 -1.73839e-03 -2.13947e-04
       H  5.27327e-03 -2.67924e-03 -3.96178e-03
       H -3.15072e-04  3.83971e-03  3.12979e-03
       O  4.02120e-04 -1.94641e-03  1.78978e-03
       H  4.59278e-03 -1.08684e-03  3.69571e-03
       H -3.40553e-03  9.58688e-04  4.61516e-03
       O  4.13931e-04 -8.31179e-04 -9.37223e-04
       H -4.85382e-03  4.40543e-04 -3.92920e-04
       H  2.96270e-03  3.41338e-03 -1.30657e-03
       O -1.96409e-03  7.98000e-04 -3.72502e-04
       H  3.97138e-03 -3.65372e-03  3.58680e-03
       H  1.32407e-03 -2.58246e-03  4.48336e-03
       O  1.32760e-03  1.96525e-03 -1.87918e-03
       H  1.15582e-04  1.70668e-04  6.43634e-04
       H  7.66880e-04  1.18637e-03  2.89185e-03
       O  1.48875e-04  6.83181e-04  4.18029e-04
       H  2.39676e-03  3.17117e-03 -3.58604e-03
       H  1.40341e-03  1.33693e-03  2.52767e-03
       O  7.19818e-04 -5.84583e-04  4.58610e-04
       H  9.86004e-04 -2.43343e-03  5.07805e-03
       H  2.06656e-03 -8.31800e-04 -3.60491e-03
       O -4.34777e-04  2.86918e-03  1.60041e-03
       H -3.56075e-03 -5.27861e-03 -7.72025e-04
       H -1.71613e-03  3.15818e-03  1.08877e-03
       O -3.12914e-04 -1.09154e-03 -8.94600e-04
       H  2.41233e-03 -5.60811e-04  2.76693e-03
       H -1.79193e-03 -1.71773e-03 -4.51381e-03
       O -4.25496e-04 -8.51967e-04  5.51621e-04
       H -5.06909e-03 -5.56107e-03  1.22828e-03
       H  2.37014e-03 -4.17140e-03  1.29645e-03
       O  3.38022e-04 -1.14500e-03  3.97185e-04
       H  1.35162e-03  1.75937e-04  1.17451e-04
       H -5.22518e-03  2.48746e-03  5.59785e-03
       O  9.20923e-04  7.79635e-04 -2.13027e-04
       H  9.75314e-04  3.42703e-03 -1.56247e-03
       H  5.64280e-04 -2.23160e-04  1.13233e-03
       O -2.24358e-04 -5.97807e-04  9.30422e-05
       H -2.34573e-03  5.08920e-03 -4.11281e-03
       H -6.84214e-03  9.06191e-04 -3.58376e-03
192
# CELL(abcABC):   16.99620    29.43815    27.67315    90.00000    90.00000    90.00000  Step:          20  Bead:       6 velocities{atomic_unit}  cell{atomic_unit}
       O -2.06974e-04 -1.16019e-03  3.00274e-04
       H -2.86632e-03  2.83140e-04 -3.29703e-03
       H -8.62725e-05 -6.94765e-03 -7.46994e-04
       O -9.39668e-04 -5.13322e-04  9.16592e-04
       H  2.32590e-03 -5.82393e-03 -1.79657e-03
       H  4.09023e-03 -1.65797e-03 -1.39489e-03
       O  4.49814e-04  5.29622e-04 -5.92041e-05
       H -1.17682e-03  1.13882e-03  4.53300e-05
       H -1.38844e-03 -8.91409e-03 -1.67069e-03
       O -6.13501e-04  1.19892e-03  1.31643e-03
       H -7.86943e-04 -1.48360e-03 -1.95791e-03
       H  1.00466e-03  4.80602e-03 -1.77497e-03
       O  6.71753e-04  6.86217e-04  1.91626e-03
       H -1.65656e-03  3.85368e-03 -1.75163e-06
       H -1.77315e-03  2.51301e-04 -3.99620e-03
       O  5.21303e-04  1.26258e-03  5.08943e-04
       H  2.28378e-03 -3.47718e-03 -1.20844e-03
       H  3.41826e-03 -2.63294e-03 -3.36156e-03
       O -7.12086e-04 -6.74202e-04 -1.02879e-03
       H  5.63271e-03 -2.37970e-03  2.85383e-03
       H  2.20288e-03 -6.55213e-04 -2.40758e-03
       O -1.11234e-03 -1.05682e-03  5.35402e-04
       H -4.11210e-05 -3.97161e-03 -3.81631e-03
       H  2.51744e-04  6.26731e-04 -2.63675e-03
       O  1.60664e-05  9.56839e-04  8.17403e-04
       H -1.03684e-02 -1.54743e-03  4.16185e-04
       H -3.60113e-03 -2.47941e-03 -3.82436e-03
       O  6.58281e-04 -5.31309e-04  1.30265e-03
       H  2.65197e-03  4.30186e-03 -5.47485e-03
       H  7.84145e-04 -1.14877e-03  4.56799e-04
       O -4.43253e-04 -1.08663e-04 -5.54657e-04
       H  5.30956e-03 -6.12266e-04 -1.46045e-03
       H  4.38877e-03 -8.43174e-03 -2.28679e-03
       O  8.13439e-04 -9.22553e-04 -1.00356e-03
       H -1.02243e-03 -2.52313e-03  3.06338e-03
       H -5.52217e-04  2.58412e-03  1.89109e-03
       O  1.00810e-04 -7.42221e-04 -3.17797e-04
       H -2.34384e-03 -1.26331e-03 -7.07312e-04
       H  5.75901e-05 -6.96027e-06  3.59662e-03
       O  1.19345e-03  6.50363e-05  7.96235e-05
       H -2.88393e-03  2.08170e-03  5.49623e-04
       H  1.11125e-03  3.68797e-03  2.20665e-03
       O -4.61936e-04 -3.72795e-04 -6.44585e-04
       H  6.03622e-04  4.02680e-03  2.90949e-03
       H -5.02036e-04 -4.18919e-03  7.90988e-03
       O -5.47460e-05 -2.87675e-04  6.44587e-04
       H -2.29441e-04  4.47477e-03 -2.22240e-03
       H -2.16223e-03 -4.32298e-03 -1.57634e-03
       O -4.86757e-04 -9.15752e-04 -1.12394e-03
       H  1.52377e-03 -7.79828e-03 -3.31695e-03
       H -3.93813e-03  1.00731e-03 -3.89711e-03
       O -1.94874e-04  8.49844e-04 -1.34542e-03
       H  6.22295e-04 -1.88220e-03  5.30813e-03
       H  4.14124e-03  6.67184e-03  2.46252e-05
       O -6.64308e-04  1.67319e-03 -1.21941e-03
       H -4.83494e-04  3.55894e-03  2.32988e-03
       H  2.38993e-04  1.66315e-03  3.35353e-03
       O -7.64168e-04 -1.05818e-04  7.80923e-04
       H  2.87322e-03 -1.86083e-04  1.62617e-03
       H  1.97687e-03  2.66307e-03 -2.46099e-03
       O  5.87966e-04 -5.80886e-04 -8.09954e-04
       H -1.72192e-03 -5.73811e-04 -1.17421e-03
       H  4.18256e-03  4.58793e-03  2.86873e-03
       O  5.64342e-04 -1.52015e-03 -8.95617e-04
       H -2.44252e-04  4.11547e-04  7.43657e-03
       H  2.73997e-04 -1.86940e-03 -9.46320e-05
       O  6.03024e-04 -8.46303e-04  5.12143e-04
       H  3.84424e-03 -1.06142e-03  4.31789e-03
       H  5.26594e-03  4.60997e-04 -3.00300e-04
       O  4.16590e-04 -2.43848e-04 -4.47658e-05
       H -5.67324e-03 -1.20641e-04 -2.54514e-03
       H  1.78511e-03  5.82604e-03  2.49738e-03
       O -1.05201e-03  4.82145e-04  8.68117e-04
       H  6.01504e-04  1.49095e-03  2.79047e-03
       H -3.58877e-03 -5.27719e-04 -2.40308e-03
       O  9.69131e-06  2.38960e-04 -6.10975e-04
       H -1.96764e-03  2.29650e-03  2.54574e-03
       H -2.18815e-03 -2.67020e-03 -3.01852e-03
       O -1.09997e-03 -1.01072e-03 -1.27053e-03
       H  9.12905e-03  3.09336e-03 -4.28927e-03
       H -4.97205e-03  1.58417e-03  4.18572e-03
       O  1.96215e-03 -6.21693e-04  1.33638e-03
       H -7.28164e-03 -7.78589e-03 -2.45666e-03
       H -6.52047e-03  3.93526e-03 -3.25212e-03
       O  4.35707e-04 -9.17978e-04 -1.63741e-04
       H  2.05627e-03  2.42483e-03  1.37207e-03
       H -3.20492e-03  4.97138e-03  6.36054e-05
       O  9.71719e-04 -5.37434e-04  1.59647e-05
       H -3.20875e-04  6.93590e-04 -1.20513e-03
       H -6.13374e-03  2.10825e-03  4.40092e-03
       O  5.12853e-05  9.74942e-04  1.60746e-03
       H  1.01972e-03  2.57196e-03  2.77416e-03
       H  4.27347e-03 -2.87859e-03  4.00887e-03
       O -8.29011e-04 -1.40399e-03 -5.13993e-04
       H -3.08739e-03 -3.89091e-03  6.57399e-04
       H  1.48698e-03 -5.78062e-03  6.90233e-03
       O  5.54925e-04  6.28567e-04 -1.73470e-03
       H -2.49413e-04 -1.43543e-03  1.48707e-03
       H -1.81367e-03 -2.07438e-03 -1.92627e-03
       O  1.36530e-03  6.39577e-04  1.31743e-03
       H  3.57075e-03 -2.51927e-04  1.39175e-03
       H  5.34987e-05  5.08408e-03  1.82151e-03
       O  1.03177e-03 -2.93380e-04  1.88332e-03
       H  2.23516e-03 -3.46129e-03 -1.75592e-03
       H  2.25480e-03  4.01713e-03 -3.14080e-04
       O  4.03817e-04 -7.09600e-04  8.64121e-06
       H -4.81002e-03 -5.48491e-03 -3.57762e-03
       H -1.15126e-03  2.61542e-04 -6.44071e-03
       O  2.99452e-04 -4.67013e-04 -1.29463e-03
       H -4.97157e-03  8.72157e-04  1.26682e-03
       H  3.28916e-03 -2.36317e-03  3.85350e-04
       O -1.00002e-03  6.22834e-04 -1.79290e-04
       H -3.08541e-03 -2.47788e-03 -9.70057e-04
       H  2.19369e-03 -4.40418e-04  2.28990e-04
       O  7.09163e-04 -5.94941e-04  4.34104e-04
       H -3.19368e-03  5.14121e-03 -3.86908e-03
       H -5.97872e-03  5.39481e-03  6.45284e-03
       O -1.70801e-04 -4.01752e-04 -1.21253e-03
       H  1.66816e-03 -6.05109e-03  9.37316e-04
       H  5.63962e-03  4.01521e-03 -4.99937e-03
       O -1.01649e-03 -6.55509e-04 -4.26362e-04
       H  8.07549e-04 -1.07262e-02 -4.68159e-03
       H -5.40085e-04  5.93181e-03  4.46322e-03
       O -5.44924e-04 -1.56831e-03  1.51067e-03
       H -3.85263e-03 -1.44095e-03  1.89175e-03
       H  2.95526e-03  7.05596e-04 -2.29773e-03
       O -2.14677e-04 -1.04013e-03  2.27838e-05
       H -9.24598e-04  1.46697e-03  3.70693e-03
       H -6.41411e-03  7.50289e-03 -3.37043e-03
       O  1.19916e-04  3.95537e-04  4.52218e-04
       H  2.73889e-03  1.36391e-03  2.24934e-03
       H -4.30438e-03 -4.08542e-03 -2.31864e-03
       O -1.11543e-05 -2.63027e-04 -4.94537e-04
       H -3.77902e-03  3.10656e-03  7.95996e-03
       H -3.01159e-03  4.72016e-03  9.78952e-04
       O -1.56591e-05  8.15072e-04 -2.51785e-04
       H -2.70658e-03 -8.10586e-04 -1.52355e-04
       H  2.47481e-03 -1.41559e-03  3.66316e-03
       O  3.52046e-04 -3.39219e-04 -3.14643e-04
       H -1.37005e-03  3.20269e-03  2.74875e-04
       H -3.52641e-03 -9.59070e-04  1.46069e-03
       O  4.75425e-04 -1.79026e-03 -9.26200e-04
       H -7.94590e-04 -7.67091e-04  4.94662e-03
       H  2.18436e-04  2.70279e-03  1.38879e-03
       O -7.80107e-04 -1.98640e-04 -3.64742e-05
       H  3.05409e-03  1.54798e-03 -1.01742e-03
       H  3.53336e-03  1.71319e-03  1.35302e-03
       O -3.00720e-04 -2.21913e-04  5.20115e-04
       H -9.96669e-04 -1.67546e-03 -9.23926e-03
       H  4.69619e-03 -2.74089e-03 -6.43323e-05
       O -4.27358e-04  1.35845e-03  9.61607e-05
       H  4.21891e-03  5.23262e-03 -4.61888e-03
       H -7.52945e-03 -2.11566e-03  4.37489e-03
       O -2.51629e-04  1.55089e-04 -4.92856e-04
       H -4.07508e-03 -1.88033e-03  2.55919e-03
       H  7.79166e-04 -1.06291e-02  4.21448e-04
       O -2.80389e-04  1.77758e-03 -9.28413e-04
       H -2.05478e-03  6.49640e-03 -2.56925e-03
       H -4.33022e-03  5.00547e-03  6.04070e-03
       O -9.33485e-04 -3.89710e-04 -2.07477e-05
       H  1.31322e-04 -3.53985e-04 -1.75608e-03
       H  1.35121e-03 -4.77125e-03 -1.03910e-04
       O -6.43954e-04 -1.52331e-03  3.88628e-04
       H -1.19676e-03  3.44331e-03  4.36808e-03
       H  5.45040e-04  5.05918e-03  2.17163e-04
       O  1.32288e-04  6.63696e-04 -5.47218e-05
       H  1.00294e-03  2.43099e-03 -2.22482e-03
       H -3.00894e-03 -4.93345e-03 -1.37859e-04
       O  1.54494e-04 -1.04354e-03  5.02464e-04
       H -2.86446e-04 -5.75594e-04  5.09176e-04
       H -2.37560e-03 -5.33564e-03  6.72591e-04
       O -1.51709e-03 -1.57299e-03  1.67916e-03
       H -3.92076e-03 -6.53697e-03 -4.31385e-03
       H  1.14809e-03 -1.06037e-03  9.56339e-03
       O  2.69947e-04 -1.48256e-03 -3.19566e-04
       H  1.20447e-03  3.75638e-03  1.20717e-03
       H  7.72099e-03 -7.63636e-03 -7.38120e-03
       O -2.79703e-04  4.79438e-05  1.31161e-04
       H -2.99886e-03 -1.16718e-03  1.42304e-03
       H -2.21577e-03  3.31951e-03  5.07518e-03
       O  1.25176e-04 -7.21510e-04  1.60935e-03
       H -1.59395e-04 -1.55347e-03  4.84700e-04
       H  7.79493e-03 -2.67421e-03 -3.61961e-03
       O -3.34940e-04 -2.14862e-04  4.26406e-04
       H  3.93469e-03  1.56483e-04 -1.22343e-03
       H  4.91520e-03  4.29362e-03  3.52702e-04
       O -1.00397e-03 -5.44869e-04 -5.54951e-04
       H  2.26773e-03  3.04781e-03  7.32489e-05
       H -1.22033e-03 -1.08638e-03 -2.44889e-04
       O  7.59736e-04  3.09265e-04 -3.85627e-04
       H -6.33449e-03  4.75798e-03  2.97617e-03
       H  3.78958e-03 -6.59299e-04  3.11863e-03
192
# CELL(abcABC):   16.99620    29.43815    27.67315    90.00000    90.00000    90.00000  Step:          30  Bead:       6 velocities{atomic_unit}  cell{atomic_unit}
       O  7.89183e-04 -1.09983e-04  1.62429e-03
       H  2.06334e-03 -3.31289e-03  3.31157e-03
       H  4.17634e-03  1.01289e-03 -2.75559e-03
       O  4.11878e-04 -3.28100e-04  5.35983e-04
       H  6.62165e-04 -2.83161e-03  1.17190e-03
       H -4.27300e-03 -3.28721e-03 -1.03736e-03
       O -1.69570e-03  1.05722e-04 -3.55209e-04
       H  1.67727e-03  4.74091e-03  3.25878e-03
       H -9.29019e-04  2.65906e-03 -1.97887e-03
       O -6.03285e-04  2.29389e-04  3.15836e-04
       H -5.44713e-03 -1.90769e-03 -2.42368e-03
       H -5.92191e-04 -1.18250e-03  1.49878e-03
       O -3.26295e-04 -1.28564e-03 -1.10731e-03
       H  5.09622e-04  4.27815e-03  4.74892e-04
       H  4.87728e-04  1.59932e-03 -1.70176e-03
       O  2.00426e-05 -4.39779e-04 -2.53169e-04
       H -4.76206e-03  3.73377e-03  3.00275e-03
       H  3.44347e-03 -3.43830e-03  6.98786e-03
       O  1.32554e-04 -8.91652e-04  4.27040e-04
       H -4.28730e-03  2.62290e-03 -3.54586e-03
       H -4.86722e-03 -2.86333e-03 -7.41155e-03
       O -1.08566e-03  5.89527e-04 -3.26193e-04
       H  1.63056e-04  2.50990e-04  2.42589e-03
       H -7.05375e-03 -1.51456e-03 -4.03582e-03
       O  3.17889e-04 -8.22392e-04  7.53996e-04
       H  2.01036e-03  3.66300e-03 -2.50233e-03
       H -4.05903e-03  3.06913e-03 -6.72964e-04
       O -3.53288e-04 -4.64649e-05 -2.83560e-04
       H  5.12622e-04 -1.92191e-04 -2.43712e-03
       H -6.42029e-04  8.51733e-04 -1.72399e-03
       O  6.29222e-04 -2.65988e-04 -1.15265e-04
       H -3.23607e-03 -2.10220e-03 -2.14399e-03
       H  1.43407e-03  4.86601e-04 -3.85339e-03
       O -2.93823e-04 -1.72830e-04 -2.86270e-04
       H  6.65849e-04 -4.74978e-03 -2.87901e-03