192
# CELL(abcABC):   16.99620    29.43815    27.67315    90.00000    90.00000    90.00000  Step:           0  Bead:      18 velocities{atomic_unit}  cell{atomic_unit}
       O  1.26738e-03  1.29535e-04  1.27181e-03
       H  8.38015e-03 -3.81011e-03  2.00968e-03
       H  4.29220e-04  7.46440e-04 -2.66105e-03
       O  5.02768e-04 -4.68775e-04 -2.68777e-04
       H  9.41688e-04 -5.76210e-03  2.84563e-04
       H  3.88504e-03  4.77920e-03 -1.54525e-05
       O  1.49751e-03 -8.88853e-04  3.39955e-04
       H -2.72437e-03  7.62478e-03  1.44687e-03
       H  2.12401e-03 -2.14645e-03  5.77433e-03
       O  4.38417e-04  1.17624e-03 -3.84813e-04
       H  2.98889e-03  2.55866e-03 -8.69681e-04
       H -8.97712e-03 -5.48292e-04  9.40304e-03
       O  2.40288e-04 -4.63310e-07 -8.84310e-05
       H -6.24366e-03  4.99860e-03  2.90366e-03
       H  8.35348e-04 -4.47212e-04 -8.14537e-03
       O -4.72160e-04  4.84927e-04 -1.10228e-03
       H -2.08679e-04 -2.51184e-03 -4.19550e-03
       H -1.38289e-03  1.40042e-03 -1.37460e-03
       O  1.30666e-03  3.13245e-04  1.21414e-03
       H  4.38579e-03  7.44962e-04 -4.66025e-03
       H -1.80517e-04 -6.29924e-03  2.91836e-03
       O  1.09566e-03  8.34430e-05  3.91943e-04
       H -9.19319e-03  5.76044e-04  3.24846e-03
       H  4.18564e-04 -2.59357e-03 -5.55792e-04
       O  2.83664e-04  2.64964e-04 -1.31633e-05
       H  1.23796e-05  1.93889e-03  1.31453e-03
       H -3.70253e-03 -1.41868e-03  6.46781e-04
       O -1.76600e-03 -8.31676e-04  3.63874e-04
       H  2.34107e-03  5.33421e-03 -2.73438e-03
       H -6.24552e-03 -1.86805e-03  3.29576e-03
       O  6.30654e-04 -1.53522e-03 -1.04011e-03
       H -2.84148e-04 -3.17568e-03  1.10317e-03
       H -6.88437e-05  6.45751e-03 -5.43860e-03
       O -1.28246e-03  8.43621e-04 -8.84584e-04
       H  8.42899e-03  4.52805e-03 -2.09178e-03
       H -5.29349e-03  7.09586e-03 -5.85662e-04
       O  5.93411e-04  8.48640e-04  2.81151e-04
       H -5.70607e-03  2.74398e-03 -4.72909e-04
       H  4.67049e-03  5.77826e-03  2.54191e-03
       O -1.37442e-05  1.59189e-03 -3.13066e-04
       H -2.34296e-03  1.34665e-03 -3.93747e-03
       H  8.54611e-04  1.52298e-03  3.05598e-03
       O  6.36854e-04  3.67581e-04 -9.50272e-04
       H -4.50842e-03  1.20877e-03 -8.50557e-04
       H  3.84547e-04  1.35247e-03  8.83332e-03
       O -1.72092e-03  2.31304e-03 -6.02129e-04
       H -7.88201e-03 -5.58041e-03 -1.97006e-03
       H  6.36683e-03  4.08629e-03  3.60977e-03
       O  1.42477e-03 -8.05691e-04 -4.33000e-04
       H  3.44633e-03  6.62570e-03  1.74702e-03
       H -1.42917e-03 -2.10444e-03  4.15018e-03
       O -1.48750e-04  1.11849e-04 -1.06996e-04
       H  2.79007e-03  5.22269e-03  2.39208e-03
       H  1.25665e-03 -3.43378e-03 -2.97371e-03
       O -4.31001e-05 -1.39482e-03 -4.54202e-04
       H -2.32633e-03  3.88231e-03 -2.67360e-04
       H  2.25887e-03  2.88027e-03 -3.51610e-03
       O -3.02412e-04  3.53463e-04  1.15725e-03
       H -1.32615e-03  3.89409e-03  3.37380e-03
       H  3.47095e-03  2.38621e-03 -5.15759e-03
       O -2.04241e-03 -5.98930e-04  1.11387e-03
       H  1.22820e-03  4.54071e-03 -8.24773e-04
       H  4.90932e-04 -4.11267e-03 -4.24399e-03
       O -2.90298e-04 -1.03911e-03  1.36846e-03
       H -4.81058e-03  1.40174e-03 -4.59710e-04
       H  8.28991e-04 -2.30792e-04  9.23109e-03
       O -6.43531e-04  1.26143e-05  7.26358e-06
       H  1.57782e-03  2.18271e-04  1.91229e-03
       H  2.32603e-03  8.65682e-04 -2.07990e-03
       O -1.28106e-03 -1.94001e-03 -1.05306e-03
       H  4.67709e-03  2.04496e-03 -1.01551e-03
       H -9.62967e-04  1.28552e-03  1.94063e-05
       O  8.70997e-05 -3.37721e-04 -1.09079e-03
       H  2.13770e-03 -3.19881e-03 -2.10832e-04
       H -4.17255e-03  2.46339e-03  3.23716e-03
       O -5.40852e-04 -5.95613e-04  5.22646e-04
       H -1.24612e-03  4.33805e-03 -2.63341e-03
       H  3.27855e-03 -3.42092e-04  2.47908e-03
       O -1.00270e-05  7.16099e-04  7.44086e-05
       H  6.38628e-03  1.37708e-03 -1.52085e-03
       H  6.49497e-03 -1.09053e-03 -1.07515e-03
       O  4.54974e-04 -1.62726e-03  1.38864e-03
       H  4.44847e-03 -3.39665e-03 -1.87168e-03
       H -2.36008e-03 -2.93223e-03 -2.05720e-03
       O  8.91446e-04 -2.73938e-04  1.19058e-03
       H  2.61843e-04  4.17300e-03 -4.68142e-04
       H -3.72352e-03 -5.57637e-03 -2.86803e-03
       O  1.49146e-04  6.56098e-04  6.17482e-04
       H -4.60491e-04 -2.77512e-03 -1.57278e-03
       H  1.49463e-03 -5.59123e-04  2.78077e-03
       O  1.04166e-03 -3.62537e-04 -3.52185e-04
       H -6.47345e-04  9.73106e-04 -9.38926e-04
       H -5.10945e-03  6.45001e-03 -4.52438e-03
       O  3.40916e-04 -1.74975e-03 -1.16243e-03
       H  1.29530e-03 -6.66599e-04 -3.03818e-03
       H  3.37666e-03  3.27650e-03 -4.00367e-03
       O  5.68525e-04  2.58042e-04  4.39337e-04
       H -7.05834e-04  1.03767e-03  3.23926e-03
       H  1.17104e-03  5.35591e-04  5.99234e-03
       O  4.01846e-04 -2.65648e-04  6.95479e-04
       H -1.90348e-03 -3.87372e-03 -1.60344e-03
       H -9.63269e-04 -3.91080e-03 -3.71954e-03
       O -6.75343e-04 -3.94094e-04  6.47579e-04
       H -1.40385e-03 -8.69174e-03 -8.46335e-03
       H  3.46930e-03 -4.97295e-03  2.89964e-03
       O -2.21959e-04  9.41336e-04 -1.21640e-03
       H -7.10631e-05 -8.42595e-04 -7.97692e-03
       H  7.57398e-03  2.63907e-03 -3.42260e-03
       O -1.21120e-04 -6.02319e-04  1.47165e-03
       H -2.61504e-03  8.83733e-04 -4.86325e-03
       H  1.62539e-03 -2.35610e-03  3.36859e-03
       O -1.37177e-03 -1.57790e-03 -2.95772e-04
       H -4.01376e-05 -1.06605e-03  3.46576e-03
       H  3.23455e-03  2.91040e-04 -3.34229e-03
       O  1.88591e-04 -4.97806e-05  8.94074e-05
       H -1.98127e-03 -1.09454e-03 -1.27589e-04
       H -1.93298e-03  8.03396e-03  4.90335e-03
       O -9.22680e-05 -9.54559e-04 -6.76029e-04
       H -2.18479e-03  1.45992e-03  3.70974e-04
       H -4.77378e-03  1.16531e-03  3.86896e-03
       O  5.17483e-04 -2.91573e-04 -6.08726e-04
       H -1.12619e-03  1.43041e-03 -2.55429e-03
       H  3.69242e-03  5.36648e-03  3.18807e-03
       O -5.88629e-04 -5.70038e-04  1.35033e-03
       H -2.48556e-03  8.96775e-04  7.32093e-04
       H  5.22327e-03 -4.16937e-06 -5.43406e-04
       O -1.56285e-03  1.20162e-03  4.82808e-04
       H -5.23679e-04  4.72255e-03  4.59690e-03
       H -3.67163e-05 -5.36207e-04  3.82621e-03
       O -1.29656e-03  1.35432e-03 -6.93502e-04
       H  1.31811e-03 -8.29010e-03  1.02553e-02
       H -1.13726e-03 -8.83172e-04 -1.24047e-03
       O -1.94812e-03 -1.30951e-03  2.29455e-04
       H -4.16402e-03 -4.06172e-03  2.61256e-03
       H  8.15742e-04 -4.46183e-03 -5.72816e-04
       O  2.77405e-04 -1.91325e-03  3.15481e-04
       H -2.15188e-03 -5.00416e-03  3.34877e-03
       H  5.02005e-04  4.44464e-03 -3.94154e-03
       O -1.19589e-03 -5.43388e-04  7.08622e-04
       H  2.15811e-03 -5.43116e-03 -4.32318e-03
       H -1.35732e-03 -2.13662e-03 -1.22242e-04
       O -1.81413e-05  7.78862e-04 -8.39101e-04
       H -3.72143e-03  4.04137e-04  5.54353e-04
       H  1.04965e-03  5.23846e-03 -5.01113e-04
       O  1.63546e-03 -7.68871e-04  1.63879e-04
       H  5.24000e-03  1.30316e-04 -2.84945e-03
       H  4.07817e-03  5.31463e-03 -2.52897e-03
       O -1.19549e-03  1.68134e-03 -9.27894e-05
       H -1.92742e-03 -4.25285e-03 -7.34454e-03
       H -2.99500e-03  7.00206e-04 -4.19285e-03
       O -2.75477e-03 -1.56274e-03 -8.13807e-04
       H  9.12369e-03 -1.52620e-03  3.56878e-03
       H  7.11014e-04 -1.19944e-03  4.97824e-03
       O  1.11560e-04 -2.59426e-03 -1.02459e-04
       H  1.62777e-03  2.15382e-03 -2.84861e-04
       H  6.40370e-04 -4.56342e-03  4.11417e-03
       O  5.87622e-04 -1.14158e-03  1.25802e-04
       H -8.94561e-03  1.44413e-03 -7.12564e-03
       H -1.06930e-03  2.20607e-03 -5.05856e-03
       O -1.62250e-03 -5.23230e-04 -7.30816e-04
       H  3.11605e-04 -4.87804e-03  4.79572e-03
       H -1.27697e-03  2.52116e-03  8.63287e-03
       O -2.90164e-05  7.56768e-04  2.87585e-04
       H -1.99966e-06  3.55987e-03  1.44224e-03
       H  6.73813e-03 -3.37700e-03 -7.94818e-04
       O -7.12197e-05 -2.88858e-04 -5.13859e-04
       H  7.90397e-04  9.35408e-03 -1.49775e-03
       H -2.24429e-03  8.94443e-04  1.64859e-03
       O  4.16564e-04 -7.01761e-04  6.29928e-04
       H -2.22979e-03  2.80611e-03 -1.37647e-03
       H  7.09054e-04 -1.93205e-03 -2.12099e-03
       O  6.53381e-04  1.38123e-04  2.67427e-04
       H -1.03810e-03  3.28273e-03  3.65944e-03
       H  1.82552e-03 -6.12938e-04  2.88524e-03
       O  7.49505e-04 -5.60100e-04 -4.65299e-04
       H -1.58232e-03 -4.84366e-04 -1.69189e-03
       H -6.17811e-03 -3.48530e-03 -3.77945e-03
       O -9.76731e-04  7.69572e-04  2.55464e-04
       H  7.18882e-04  3.98883e-03  8.69219e-03
       H -1.22285e-03 -2.75325e-03  5.39008e-03
       O  3.21707e-04 -1.15589e-03 -1.61341e-04
       H -1.98566e-03  1.50752e-03 -1.50004e-03
       H  2.60822e-03 -2.22347e-03 -2.74405e-03
       O -2.06778e-03 -6.08613e-04  5.84094e-05
       H  6.40189e-03  4.92452e-03 -4.59057e-04
       H  7.51751e-03 -4.00659e-03 -6.46062e-03
       O -9.91648e-04  8.06055e-04 -1.19961e-03
       H -2.37669e-03 -9.98214e-05  4.13629e-03
       H  3.40711e-03 -5.94826e-03  1.71465e-03
       O -3.42767e-04 -9.76634e-04 -7.38812e-04
       H -1.17752e-03 -1.50377e-03  6.04477e-03
       H  8.48762e-03 -2.05320e-04  3.49867e-03
192
# CELL(abcABC):   16.99620    29.43815    27.67315    90.00000    90.00000    90.00000  Step:          10  Bead:      18 velocities{atomic_unit}  cell{atomic_unit}
       O -1.83649e-03  2.52444e-04 -9.83242e-04
       H -4.39153e-04 -2.48452e-03 -1.47463e-03
       H  2.18305e-03  1.99888e-03  2.19241e-03
       O  1.18773e-03  8.80381e-04  1.34614e-04
       H -4.00306e-03  4.52585e-03  3.68381e-04
       H -4.97307e-03  2.10436e-03  5.73565e-03
       O -9.95748e-04  2.62559e-04 -8.15142e-04
       H -2.95387e-03  4.78657e-03 -1.70130e-04
       H -1.66714e-03  1.37408e-03 -1.09242e-02
       O  7.67045e-04 -7.28098e-04 -9.14417e-05
       H  1.02337e-03  7.49893e-03 -3.53054e-04
       H  6.67362e-03  1.56313e-03  5.81174e-03
       O  1.21513e-03 -7.58708e-04 -5.36608e-04
       H  1.47914e-04  6.41046e-04 -6.33306e-03
       H -6.38423e-04  6.78830e-04  6.21097e-03
       O -8.83492e-04 -4.31345e-04 -7.99818e-04
       H  7.63326e-03 -1.01317e-03 -4.17847e-03
       H -6.11459e-03 -7.99577e-03  1.10800e-03
       O -8.03945e-04 -4.90071e-04  2.14737e-04
       H -5.40115e-03 -2.82732e-03  1.27138e-03
       H -2.27143e-03  2.36265e-03 -3.79824e-03
       O -7.01629e-04 -1.67469e-03 -1.40968e-03
       H  3.28963e-03  3.22150e-04 -4.68060e-05
       H -1.30614e-03  2.72311e-03 -9.92304e-04
       O  9.19126e-04 -9.81582e-04 -1.04192e-03
       H -2.17588e-03  2.53182e-05 -1.12947e-03
       H  2.62474e-04 -4.73131e-03  2.80207e-03
       O  9.26178e-04 -5.73086e-04  8.33937e-04
       H -5.21484e-03 -3.17176e-03 -1.55803e-03
       H  1.36459e-03 -3.85101e-03 -5.15718e-03
       O -4.51122e-04  3.40038e-04  9.58594e-04
       H -2.41369e-03 -7.99789e-04 -2.47779e-03
       H -3.43372e-03  3.26925e-03  9.79596e-05
       O -1.35940e-03  3.05618e-04 -9.43406e-04
       H  6.39684e-04 -2.41497e-03  3.68917e-03
       H  7.94370e-04  1.07709e-03 -1.22035e-03
       O -1.10667e-03 -3.31737e-04  1.29305e-03
       H  3.19231e-03  1.36711e-03 -2.76269e-03
       H  6.71934e-04 -1.86764e-03  2.84329e-03
       O -1.40976e-03 -5.67921e-04  2.88639e-04
       H -1.86177e-03  4.93559e-03 -5.56202e-03
       H -1.68481e-03  1.56382e-03  4.61926e-03
       O -7.92062e-04 -5.85142e-04  1.12191e-03
       H -1.55282e-03 -8.13031e-04  3.14489e-03
       H -1.29406e-04 -7.23362e-03 -2.03338e-03
       O  1.21590e-04  1.07165e-03 -1.43514e-03
       H  3.78010e-03 -2.47301e-03  4.76770e-03
       H  1.97978e-03 -5.13941e-03 -2.55999e-03
       O  2.97611e-04 -5.23921e-04 -8.51441e-04
       H -1.98620e-03 -7.63443e-04 -2.23383e-03
       H  4.69813e-03  4.29574e-03  1.09461e-03
       O -2.05206e-04 -6.07683e-04 -1.99586e-04
       H -3.13620e-03  2.44648e-03  1.13825e-03
       H  4.07414e-03  2.84547e-03  9.96708e-04
       O  3.94428e-06 -2.03658e-04 -8.33043e-04
       H  7.29631e-04  1.30322e-04  2.03038e-03
       H -1.49825e-03 -4.16738e-03 -1.82086e-03
       O  7.38683e-04 -2.24891e-04  2.75648e-05
       H  1.40960e-03 -3.48785e-03 -3.59435e-03
       H  7.59573e-04  2.24250e-04 -2.13692e-03
       O  1.16696e-04 -2.71155e-04 -8.33500e-04
       H -2.76433e-03 -2.03141e-03  6.92972e-03
       H -3.39791e-03  2.88523e-04 -2.39442e-03
       O  3.01191e-04 -1.28525e-03  3.40966e-04
       H  6.01246e-04  1.61795e-03 -7.88778e-04
       H  5.83083e-03  2.37643e-03 -1.12622e-03
       O -1.07966e-03  1.33448e-03 -5.17291e-04
       H  3.15394e-03  4.26357e-03  2.45562e-03
       H -2.20174e-03 -2.28889e-04 -1.77928e-03
       O  1.64877e-05  3.45941e-04 -3.20215e-04
       H -1.03885e-03  8.37677e-04 -4.65073e-03
       H  1.52372e-03 -3.95243e-04  5.41933e-04
       O -4.98387e-04 -2.06941e-03  6.43751e-04
       H -2.82402e-03  5.55782e-03  5.39175e-03
       H -1.23915e-03  4.33422e-03  2.78654e-03
       O  1.14475e-04  4.39529e-04 -1.39262e-04
       H -7.11420e-04  2.44496e-03  2.06815e-03
       H  3.19674e-03  3.17967e-04  5.45885e-03
       O -2.81866e-04  6.83027e-04 -1.09322e-03
       H -3.10896e-03  5.42192e-03  3.81301e-04
       H  1.75385e-03 -1.66018e-03  3.37679e-03
       O -4.57171e-07 -7.45501e-04  1.49490e-05
       H -2.18304e-03  3.11390e-03 -3.59824e-03
       H -1.45002e-03 -2.29887e-03 -9.39948e-04
       O  1.14279e-03  6.02006e-04  1.21272e-03
       H  1.87618e-03 -3.23493e-03 -2.99546e-03
       H -3.79289e-03 -3.97879e-03 -5.25256e-04
       O -6.39026e-04 -1.65964e-03  3.66476e-04
       H -2.50464e-03 -2.23508e-03 -5.10632e-03
       H -2.11912e-03  1.34315e-03  5.39661e-03
       O -4.91484e-04  1.08464e-03 -2.90786e-03
       H -3.69540e-04 -4.18609e-03 -1.19628e-03
       H -1.32316e-03 -3.48041e-03  1.08505e-03
       O -6.95089e-04 -3.08948e-04 -1.49492e-03
       H -4.28762e-04 -1.52963e-03 -2.05537e-03
       H  5.37983e-03 -1.70282e-03 -2.08908e-06
       O  8.57335e-04  2.38103e-04 -8.60410e-04
       H -3.58241e-03  1.12026e-03 -9.32584e-04
       H  3.40042e-03  4.49032e-03  8.22450e-03
       O  8.36219e-04 -5.32383e-04  1.05032e-03
       H -2.34915e-03 -1.89230e-03 -1.33888e-03
       H -3.27789e-03 -1.62567e-03  3.21914e-03
       O -5.18495e-04 -1.18538e-03 -9.10722e-04
       H -8.64004e-04 -9.24370e-04  5.69543e-03
       H -2.15885e-03 -1.87715e-03 -3.18461e-03
       O -1.50970e-03  4.00539e-04 -9.04030e-04
       H -6.22274e-03  1.98016e-03  3.70219e-03
       H -1.60722e-03  5.84483e-03 -2.08644e-03
       O -6.39209e-04 -1.60209e-04  1.49272e-03
       H  3.80928e-03 -1.26645e-03 -2.47225e-03
       H -4.87316e-03 -5.99462e-04 -5.25812e-03
       O -1.20309e-03  7.67247e-04 -4.70317e-04
       H -1.62260e-03 -9.72138e-03  4.00172e-04
       H  4.43668e-03 -2.55468e-03 -2.34865e-04
       O  3.29789e-04 -6.15258e-04  3.67053e-04
       H -2.00186e-03 -3.39298e-03  1.62164e-03
       H -3.37658e-03  6.27020e-03 -6.59420e-04
       O  1.08852e-03 -2.66522e-04 -6.88520e-04
       H -5.13654e-04 -2.60819e-03 -9.01117e-04
       H  9.38652e-03 -3.94825e-04  2.45222e-03
       O  1.44488e-04  3.92358e-04  2.12922e-04
       H -1.48164e-03 -2.94942e-03 -6.68851e-04
       H -8.64555e-04 -3.69875e-03  5.47443e-03
       O  1.84943e-04 -1.65911e-03 -1.19505e-03
       H -4.34150e-03 -4.06817e-03  4.00186e-03
       H -8.34916e-04  7.51246e-04  1.68229e-03
       O  1.72293e-04  7.27038e-04  6.92159e-04
       H -2.57014e-03 -1.53259e-03 -5.80198e-03
       H  3.42517e-05 -2.26339e-03 -4.73298e-03
       O -4.02983e-04 -1.11440e-03  1.10734e-03
       H  1.07955e-03 -2.48878e-03  9.43637e-04
       H -8.03082e-04  2.47636e-03  6.55567e-03
       O -1.07356e-03  2.93062e-04  4.01660e-04
       H -3.00037e-03  5.45901e-04  1.23104e-03
       H  3.61316e-04 -5.22709e-03  1.50372e-03
       O  7.57564e-04 -5.84272e-04 -1.50655e-03
       H  1.04211e-03 -8.80332e-04  9.24110e-04
       H  1.27392e-03  4.53516e-03 -4.85803e-04
       O -4.94930e-04 -4.09101e-04 -4.65832e-04
       H  2.49226e-03 -3.89262e-03 -6.25515e-05
       H -2.22970e-03  3.91335e-04 -3.90079e-04
       O  7.26635e-04 -1.83576e-04  1.06689e-03
       H  1.19568e-03 -1.26322e-03  3.83263e-03
       H -3.69165e-03 -1.31771e-03  2.85106e-03
       O  4.64714e-05  1.26417e-04  2.63611e-04
       H -8.68110e-03  2.11602e-03 -5.90744e-03
       H  1.60549e-03 -1.60780e-03  6.93851e-04
       O  1.11158e-03  8.12852e-04 -5.51580e-05
       H -7.95301e-04 -3.65113e-03  4.89676e-03
       H  2.86330e-04 -1.36447e-03 -1.45011e-03
       O -6.95446e-04 -7.93534e-05 -2.85329e-04
       H  2.83435e-03 -4.22694e-03 -5.03983e-03
       H  5.89849e-04 -1.20565e-03 -6.18916e-03
       O  5.05685e-04 -5.13279e-04  5.65186e-04
       H -1.13197e-03 -5.96615e-03  5.10312e-03
       H  5.65054e-03 -3.75987e-03  8.37725e-04
       O  1.54589e-03  7.44334e-05 -1.35727e-04
       H  3.30728e-03  8.07093e-04  1.13390e-03
       H  6.30304e-03  4.82557e-03  1.69299e-03
       O  6.46669e-04 -7.19603e-04  4.58397e-04
       H -1.84361e-03  2.11359e-03  8.49708e-04
       H  1.14540e-02 -4.51499e-03 -1.35660e-03
       O  2.28386e-04  1.70980e-03  2.03416e-03
       H  2.79244e-03 -3.78093e-04 -3.94664e-03
       H  3.35936e-03  1.32048e-04  3.01810e-03
       O -8.04795e-04  1.46347e-03 -2.17913e-03
       H -3.42398e-03 -1.73571e-03  2.54243e-03
       H  1.83717e-03 -2.28739e-03 -1.20215e-04
       O -1.69502e-04  2.96055e-04 -6.77773e-04
       H  2.08377e-03 -4.03550e-03 -5.34326e-04
       H -1.24765e-03  7.21429e-03 -4.16688e-03
       O -5.23797e-04  4.02037e-04 -5.24474e-04
       H  4.17776e-04  9.16327e-04  2.75550e-03
       H -3.32354e-03  2.41406e-03  8.10335e-04
       O -1.40053e-04  8.46747e-04 -5.94471e-04
       H -2.43577e-03 -1.68859e-03  1.22704e-03
       H  1.84775e-04 -1.03115e-03  2.17329e-03
       O  1.51051e-04  1.17717e-03 -1.76823e-03
       H  3.45524e-03  3.69697e-03 -7.48387e-03
       H -4.01328e-04  1.42964e-03  4.19791e-03
       O  3.63143e-04  6.21696e-04  3.32082e-04
       H -1.08117e-03 -3.57883e-03 -3.58400e-03
       H  5.89788e-04  8.90560e-03  1.55550e-03
       O -5.57513e-04  3.08586e-05  7.94599e-04
       H  1.05490e-03 -1.69537e-03  3.57173e-03
       H -5.19952e-04  6.20546e-04  4.44281e-03
       O  1.29535e-03 -2.17596e-04 -2.27443e-04
       H -1.17249e-03  5.63484e-03 -4.44696e-03
       H  2.90120e-03 -5.87332e-03 -2.73855e-03
       O  1.55105e-03  7.90971e-04 -8.46476e-04
       H -4.79563e-03  2.56648e-03 -6.18467e-03
       H -2.25762e-03  3.75473e-03  5.28121e-03
192
# CELL(abcABC):   16.99620    29.43815    27.67315    90.00000    90.00000    90.00000  Step:          20  Bead:      18 velocities{atomic_unit}  cell{atomic_unit}
       O  1.10253e-04 -5.06904e-04  1.27139e-03
       H -4.11485e-04  2.55740e-03  6.05090e-03
       H -4.16711e-04  7.75495e-03 -2.91726e-03
       O -7.64827e-04 -1.46478e-03  1.95798e-04
       H  1.58430e-05 -3.91318e-03  1.01908e-03
       H -4.01591e-03  2.42503e-03 -3.46469e-03
       O  1.27471e-04  4.29295e-04 -1.26122e-03
       H -1.33589e-03  1.41323e-03  4.34498e-03
       H  3.57388e-03  5.17077e-04 -2.30225e-03
       O -1.83356e-04  4.67952e-04  1.01483e-03
       H  3.49051e-03 -6.24634e-03  2.29164e-03
       H  3.96929e-03  3.77102e-03 -4.07494e-03
       O  9.89426e-04  4.23278e-04 -5.72411e-04
       H -1.21737e-03 -4.76343e-03  6.42343e-04
       H  4.64014e-03 -3.98465e-03  8.73942e-03
       O  1.17408e-03 -2.76638e-04  7.56450e-04
       H -4.88208e-03 -5.61254e-04  4.15202e-03
       H  1.75332e-03 -9.54113e-04 -7.43620e-03
       O -9.57224e-04  9.87036e-04 -5.84959e-04
       H -8.30718e-04  2.72421e-03  6.02421e-03
       H  4.96543e-03  5.53643e-03 -3.26096e-03
       O -3.35603e-04  5.16635e-04  3.14758e-04
       H  2.17740e-03 -6.46702e-04 -4.07116e-03
       H -6.33610e-03  3.69269e-04 -2.62241e-03
       O  2.17790e-04  5.03676e-04  7.31489e-04
       H  1.63529e-03 -8.86490e-04 -3.85450e-03
       H  5.24641e-03  3.45557e-03  3.95296e-03
       O  3.13652e-04  1.02919e-04  2.04166e-03
       H -1.00531e-03  1.78693e-03  1.29668e-03
       H -1.85099e-04 -8.74557e-04  4.70017e-04
       O -6.67783e-04 -1.37755e-03 -1.30737e-03
       H  2.98051e-03  8.27606e-04  3.52867e-03
       H  5.06302e-03 -8.78355e-04 -7.44934e-03
       O -1.74849e-04  9.03747e-04 -2.67856e-04
       H  2.67044e-03 -2.49186e-04 -7.49582e-04
       H -1.14125e-03 -3.01358e-03 -7.76700e-04
       O  1.22010e-03  7.70281e-04 -1.86864e-04
       H -5.09313e-03  3.25548e-03  9.72210e-04
       H -1.88119e-03  1.03661e-02  1.32850e-03
       O  1.23051e-03  1.13408e-04 -2.04172e-04
       H  4.04211e-03 -1.15959e-03  9.65439e-04
       H -3.28877e-04 -3.93631e-03  1.77310e-03
       O  2.27966e-03 -2.02507e-03  9.87615e-04
       H  5.84860e-03 -1.34608e-03  1.10372e-03
       H -1.64202e-03  3.25193e-03 -4.57106e-04
       O  1.59914e-04 -3.21680e-04  9.91069e-04
       H -6.52264e-04 -3.78763e-03 -1.49698e-03
       H  4.63138e-04 -7.50007e-04 -1.05879e-03
       O -2.89168e-05 -7.77480e-04  2.32206e-04
       H  1.81733e-03  2.79477e-03  3.82979e-03
       H -1.05839e-03 -7.24805e-03 -3.49881e-03
       O -1.09775e-03  1.23438e-03  3.97153e-04
       H -7.05161e-04 -2.72700e-03 -8.43949e-04
       H -1.10982e-03 -2.38050e-03 -5.20695e-05
       O -3.00684e-04  1.20012e-03  9.26447e-06
       H  3.90571e-03  3.18266e-03 -4.24231e-03
       H -1.64953e-03  3.07310e-03  2.77135e-03
       O -9.34552e-04 -1.12484e-04  6.41737e-05
       H  6.33308e-03 -2.18835e-03  1.64870e-03
       H -1.19846e-03  4.18975e-03  2.58805e-03
       O -3.24443e-04  4.68011e-04 -1.28205e-03
       H -4.02926e-03 -5.70731e-03  1.15993e-03
       H -9.59241e-04  2.22355e-03 -1.51986e-03
       O  1.11619e-04 -8.21375e-04  7.34296e-04
       H  2.90596e-03  2.38607e-03 -8.91774e-03
       H -1.99131e-04 -1.69822e-03 -4.80785e-03
       O  9.66515e-04 -1.55864e-03 -1.31935e-03
       H -2.72710e-05 -3.38956e-03 -1.36096e-03
       H  3.09372e-03 -3.96097e-03  9.33561e-04
       O -1.83542e-03  5.09912e-04  2.54149e-05
       H  3.07487e-03 -9.81880e-04 -8.23929e-03
       H -3.07207e-03  2.49493e-03  4.19737e-03
       O  1.71760e-03 -4.20269e-04 -1.32916e-04
       H -2.36305e-03 -1.06873e-03  5.06755e-04
       H  5.48651e-04  5.63104e-03 -4.24335e-03
       O -7.77680e-04  2.01483e-03 -4.34219e-04
       H  4.23301e-04 -2.59415e-03  4.67686e-03
       H  1.85269e-03 -4.40817e-03 -1.60423e-03
       O -3.08201e-04 -5.67861e-05 -1.92440e-05
       H -1.65398e-03  3.80752e-03  4.46632e-03
       H -7.21142e-03  1.65064e-03 -3.07253e-04
       O -1.25874e-05 -2.41289e-04  6.28201e-04
       H  4.43560e-04  8.28372e-04  3.32414e-03
       H -3.63201e-03 -3.63168e-03 -3.98187e-03
       O -7.01690e-04  2.59980e-04 -4.09488e-04
       H -8.37866e-04  2.67915e-05 -3.69015e-03
       H -1.46705e-03  1.00810e-02  5.83102e-03
       O  9.87134e-04 -1.70668e-04  1.35392e-03
       H -3.08232e-03  9.89759e-05 -1.51234e-03
       H  1.29733e-03 -2.95119e-03  2.06230e-03
       O -9.76597e-04 -5.87000e-04 -4.23639e-04
       H -1.51922e-03 -1.30180e-04  6.51568e-05
       H  1.20603e-03 -1.95100e-03 -5.13235e-03
       O  1.05696e-03  2.53695e-04 -2.33192e-05
       H  1.56074e-03 -2.03821e-03  7.80281e-03
       H -2.56970e-03 -1.33466e-04  3.03909e-03
       O  8.11630e-04 -2.37827e-04 -6.17044e-04
       H -1.62638e-03 -1.70700e-03 -2.17651e-03
       H -2.70711e-03 -2.42656e-03  3.28897e-03
       O -6.75650e-04 -1.98635e-04 -8.97313e-04
       H -4.19595e-03 -1.07854e-03  1.26957e-03
       H  5.49363e-03 -1.31273e-03 -4.39645e-03
       O -3.10167e-04 -5.90769e-04  2.90543e-04
       H  5.22881e-03 -5.15148e-04 -2.65610e-03
       H -7.35478e-03  3.32747e-03 -5.85302e-03
       O  4.11365e-04  1.01965e-03 -4.17743e-04
       H -1.11806e-03 -2.27025e-03 -2.26213e-03
       H  5.27255e-03 -1.20714e-05 -1.35767e-03
       O  1.27771e-03  4.48189e-04 -5.95518e-04
       H -1.47218e-03  5.90191e-03  7.10167e-04
       H  3.88875e-03 -1.24683e-03 -3.36028e-03
       O  7.66584e-04 -1.28198e-03 -1.21828e-04
       H  6.30876e-03  5.81826e-04  3.20367e-03
       H -4.15403e-03  4.92398e-03  8.89623e-04
       O  6.92168e-04  1.01972e-03 -6.93424e-05
       H -5.14457e-03 -5.77986e-03  5.53345e-03
       H  2.65248e-03  1.39533e-03 -3.29056e-03
       O  5.37693e-04 -9.30021e-04  1.76172e-03
       H  5.84481e-03  4.58474e-04 -4.69819e-03
       H  4.38394e-03  6.32291e-03  2.79095e-04
       O  1.80266e-03 -2.64177e-04 -1.35051e-04
       H -3.66113e-03  2.84812e-03  3.73054e-03
       H  1.91679e-03 -6.74733e-03  4.19083e-03
       O  1.50859e-03 -1.44193e-03 -1.10673e-04
       H -6.91960e-04 -4.59771e-03  1.28853e-03
       H -3.84706e-04  7.40293e-04 -1.11455e-03
       O  9.87811e-04 -1.54910e-04  5.77746e-04
       H  1.33714e-03 -9.87457e-04  5.24668e-03
       H -4.57961e-03 -5.29621e-03 -7.53547e-03
       O  6.61186e-04 -2.02916e-04 -6.66935e-05
       H -2.19171e-03 -4.69526e-03 -1.40244e-03
       H  1.28099e-03 -3.77808e-03  9.39893e-04
       O -1.73997e-03 -1.57659e-03  6.11115e-04
       H  4.06950e-03  3.15273e-03  2.11842e-03
       H -3.85218e-03 -2.23662e-03 -2.39345e-04
       O  2.58067e-04  8.18931e-04  4.37939e-04
       H -3.17503e-03 -1.20972e-03  1.89527e-03
       H  7.61867e-03  3.64830e-04  2.26619e-03
       O -1.08296e-04 -4.47102e-04  1.01793e-03
       H -7.59675e-03 -1.02091e-03 -3.48606e-03
       H  8.71078e-03 -9.28870e-04  3.43223e-03
       O  5.52652e-04  9.74683e-04 -4.21093e-04
       H -1.24881e-03  1.05575e-03 -4.25514e-03
       H -1.35738e-03  7.54359e-04 -3.69728e-03
       O  5.28006e-04  2.10112e-05  2.10363e-03
       H -1.81862e-03  2.08806e-03 -8.48872e-04
       H  9.55075e-04  5.97024e-03 -2.13179e-03
       O  8.37671e-05  1.35120e-03  5.36174e-04
       H  3.85798e-03 -3.48108e-03  3.73204e-03
       H  8.99588e-04 -1.97712e-03 -1.01877e-03
       O  1.39402e-03  1.69756e-03  5.47964e-04
       H  9.69409e-04  2.40888e-03 -6.99137e-03
       H -2.41348e-04  2.71313e-03  7.78769e-04
       O -1.01046e-03 -6.57305e-04  1.36174e-05
       H  7.53635e-03  1.20835e-03  2.16056e-03
       H -3.37768e-03 -3.82768e-03 -6.09152e-03
       O -1.17267e-03 -1.75418e-04  7.70893e-04
       H -3.55239e-03 -7.11971e-04 -1.15366e-03
       H -1.16282e-03  7.21434e-04  3.26832e-03
       O  2.65196e-04 -1.03569e-04  3.41910e-04
       H  2.59561e-03 -3.61685e-03 -2.12113e-03
       H -1.16072e-02  8.16241e-04  6.32547e-04
       O -1.33742e-03 -1.04860e-03 -1.44786e-03
       H -9.53760e-04 -1.86656e-03 -1.65512e-03
       H -9.20269e-04 -3.12688e-03 -4.09068e-03
       O  1.89947e-03 -1.94294e-04  2.09347e-03
       H  2.63418e-03 -7.03613e-04 -3.46637e-03
       H  3.38828e-03 -8.18448e-04 -3.66552e-03
       O  8.89109e-04  1.97331e-03  8.61575e-04
       H -7.78172e-06  4.06724e-03 -4.93011e-04
       H  7.17676e-03 -4.70527e-03 -1.77479e-04
       O -2.83135e-04  2.87346e-04  1.74624e-06
       H  8.60032e-04 -1.74134e-03  3.70604e-03
       H -5.33238e-04  3.60437e-03  3.43359e-03
       O  2.40710e-04 -5.55853e-04  7.63556e-04
       H  4.94049e-03  2.29817e-03 -2.02061e-03
       H  6.21362e-03  6.48740e-03 -2.02101e-03
       O -1.39345e-03  1.17936e-04  5.66219e-04
       H -3.62766e-03 -8.41377e-04 -6.43002e-04
       H  2.94920e-03  6.11705e-03  3.93970e-03
       O  7.32728e-04  4.82481e-04 -4.80760e-04
       H  1.78891e-03  3.09390e-03  8.46973e-04
       H -2.35337e-03 -3.14879e-03  4.12439e-03
       O  8.43661e-05  1.28666e-04  3.34145e-04
       H -1.20352e-03  5.45532e-03  1.47279e-03
       H -4.29862e-03 -1.82167e-03  2.79475e-03
       O  5.85043e-04 -1.52825e-03  1.66281e-03
       H -8.20789e-04 -2.88214e-03  2.70808e-03
       H  3.55534e-03 -2.90120e-03  3.91907e-03
       O -1.07775e-03  7.76221e-04 -6.24211e-04
       H  8.31772e-04  3.27435e-03 -4.97864e-04
       H  4.96703e-03  3.97573e-03 -6.81327e-04
192
# CELL(abcABC):   16.99620    29.43815    27.67315    90.00000    90.00000    90.00000  Step:          30  Bead:      18 velocities{atomic_unit}  cell{atomic_unit}
       O -9.57855e-04 -6.07155e-04  1.07465e-03
       H -3.76778e-03  2.42534e-03  4.84465e-03
       H  1.17387e-03  8.55384e-04 -4.68533e-03
       O  2.12335e-03  5.58061e-04 -2.83386e-04
       H  8.73791e-04  6.58060e-04 -3.94476e-03
       H -4.40483e-03  1.60072e-03 -4.89398e-03
       O -1.01243e-03 -2.14263e-04  1.08956e-04
       H  2.12123e-03 -2.00342e-03 -8.13524e-03
       H  1.98236e-03  1.20457e-03 -6.14084e-03
       O -2.06578e-04  1.07178e-03 -1.86632e-04
       H -2.07534e-03 -7.15669e-03  6.01036e-04
       H -4.70723e-03 -2.29892e-03 -1.36589e-03
       O  1.00544e-04  1.51745e-03 -2.46329e-04
       H  1.46635e-03  2.06066e-03 -1.52750e-03
       H  5.38621e-03 -1.63634e-03 -2.34437e-03
       O -9.62175e-06  1.48484e-03 -1.57264e-03
       H -1.31208e-03 -8.94769e-03  4.58049e-03
       H -5.91710e-03 -7.80547e-04  3.81771e-04
       O -1.60067e-03  2.57557e-04  5.64175e-04
       H -1.42510e-03  2.11402e-03 -4.08689e-03
       H  5.80754e-04  3.68309e-03  8.02351e-03
       O -2.12279e-03  1.96783e-04  7.52361e-04
       H -8.31123e-04 -1.03086e-03  1.09958e-03
       H  7.09593e-03  5.46360e-04 -4.37132e-03
       O  1.97452e-06  4.63814e-04  1.67121e-03
       H -1.78063e-04 -2.13821e-03  2.34375e-03
       H -3.89931e-04 -1.47042e-03 -3.27626e-03
       O -9.84560e-04  1.59469e-03  1.58952e-04
       H  1.52939e-03 -3.68282e-03 -3.24731e-03
       H -2.61311e-03  2.16740e-03  2.95477e-03
       O  1.61042e-03 -1.14275e-03 -3.23110e-04
       H -1.05519e-03 -2.32747e-03 -7.66296e-03
       H -4.15039e-03 -1.00679e-02  3.14146e-03
       O  3.71268e-04 -6.58726e-04  1.27008e-04
       H -1.62642e-04  1.92193e-03 -2.97472e-03