192
# CELL(abcABC):   16.99620    29.43815    27.67315    90.00000    90.00000    90.00000  Step:           0  Bead:      20 velocities{atomic_unit}  cell{atomic_unit}
       O  1.23696e-05  1.68216e-03  8.69950e-04
       H  6.03310e-04  4.38539e-03  2.16389e-03
       H  1.46138e-03  2.32048e-03  1.57258e-03
       O  7.58705e-04 -1.26307e-05  5.54511e-04
       H -2.84053e-04  3.59367e-03 -4.23820e-03
       H  2.12335e-03 -2.42388e-04 -1.03130e-03
       O  3.97146e-04  5.24246e-04  3.10824e-04
       H  2.82432e-03 -5.20385e-04 -6.45775e-03
       H -5.70592e-04 -5.41127e-03 -1.07121e-03
       O -7.12278e-06 -2.35344e-04 -1.62431e-03
       H -3.07116e-03 -6.01909e-04 -2.42693e-03
       H -8.62093e-03 -5.79777e-04  6.50246e-03
       O  1.88513e-03  1.17660e-03  5.46967e-04
       H  4.25524e-03 -1.83067e-03 -1.41626e-03
       H  5.04073e-03 -2.10788e-03 -2.54755e-03
       O  5.97038e-04 -6.51803e-04 -4.78456e-04
       H  3.04119e-03  5.28493e-03 -1.39771e-03
       H -1.85487e-03 -1.65588e-03 -4.93529e-04
       O -1.08213e-03 -1.13887e-03  3.74618e-04
       H  6.15344e-03 -4.07807e-03  1.56665e-03
       H -4.72524e-03  8.87290e-03 -1.17820e-03
       O  5.61876e-04  1.60040e-04  9.14054e-04
       H -3.81730e-04 -4.62882e-03 -4.79466e-03
       H -6.09778e-03 -1.77876e-03  1.43586e-03
       O -1.48514e-03  1.51228e-03 -7.38697e-04
       H  4.40749e-03  9.47939e-04 -2.22050e-03
       H -1.93993e-03  4.23906e-03 -9.57465e-03
       O  8.19342e-04 -4.83366e-04 -1.65064e-03
       H -9.40506e-04 -8.66593e-05  3.81321e-03
       H -2.28741e-03 -9.95743e-04  7.96894e-05
       O -2.95858e-04  1.96763e-04  1.04463e-03
       H  6.67206e-03 -1.85445e-03  4.05373e-03
       H  3.55434e-04 -1.54981e-03 -2.27678e-03
       O -6.96604e-04 -3.55012e-04  3.63641e-04
       H  2.73687e-03 -3.35929e-03 -3.22105e-03
       H  1.98176e-03  1.56081e-03 -1.74158e-04
       O  5.21415e-04 -6.67121e-04 -4.20478e-04
       H -2.23915e-03 -7.26251e-05 -1.89660e-03
       H -4.44475e-03  3.38679e-03  1.27001e-03
       O -2.32543e-04 -7.57229e-04 -3.02981e-04
       H -3.71890e-04 -2.68004e-03 -9.26360e-03
       H  1.48293e-03 -2.19627e-04 -4.26326e-04
       O -4.51133e-04  4.62071e-04 -8.16689e-06
       H -3.02167e-04  6.60998e-03  8.99901e-03
       H  1.22190e-03  4.16465e-03  5.54869e-03
       O  1.83150e-03  1.87587e-03  1.52257e-03
       H  9.73191e-04 -2.51290e-03  3.41962e-03
       H -1.86088e-04 -4.63604e-03 -2.20831e-03
       O -1.18663e-03 -8.33574e-04 -9.46977e-04
       H  1.50339e-03  4.54003e-03 -4.46366e-03
       H  8.94466e-04 -3.64908e-03 -8.05942e-06
       O  1.61245e-03  5.69434e-04  3.03833e-04
       H -2.06820e-03 -3.06114e-03 -2.33612e-04
       H  5.41127e-03  6.89352e-04  9.81510e-04
       O -9.88037e-04  6.82686e-04 -4.81622e-04
       H -9.05531e-03  6.22357e-03 -2.36352e-03
       H  3.14126e-03 -2.41479e-03 -4.09889e-03
       O  7.08186e-04 -9.54774e-04  5.20306e-04
       H -1.74821e-04 -1.31016e-03 -1.88722e-04
       H -4.40394e-04 -1.43263e-03 -3.81262e-03
       O  5.22657e-04 -1.47362e-04 -1.57281e-03
       H -6.12857e-04  4.12267e-03  3.32370e-03
       H -1.81661e-03  6.00255e-03  7.68049e-03
       O -8.09481e-04  8.88077e-04 -1.12017e-03
       H -2.53378e-03 -1.45031e-03  3.39352e-03
       H -3.95808e-04  7.06034e-03  6.57385e-06
       O -1.04107e-03  1.68854e-04 -5.89427e-05
       H -2.68002e-03 -4.31857e-03 -3.50098e-03
       H -5.34724e-03 -9.73009e-04 -7.32331e-03
       O -5.16738e-04  1.00627e-04 -9.22901e-04
       H -1.76250e-03  1.00774e-04  6.39497e-03
       H -1.19757e-03  3.34177e-03  5.16748e-03
       O -1.83733e-04 -7.70243e-05  8.21922e-04
       H -3.65333e-03  3.68614e-05  2.41718e-03
       H  1.78510e-03 -3.10389e-03  5.62857e-03
       O  8.65171e-04  9.62522e-04 -4.69120e-04
       H  4.02482e-03  3.43799e-03  2.60607e-03
       H  1.29321e-04 -1.08767e-04 -3.52414e-03
       O -4.69763e-04  5.76991e-04  5.42926e-04
       H -1.59749e-03 -1.26313e-03  3.98211e-03
       H  2.64671e-03  1.53795e-03 -5.36123e-03
       O -7.97236e-04  6.86892e-04  3.40299e-04
       H  7.73054e-04 -7.53150e-03 -2.43915e-03
       H -2.14645e-04  1.46405e-03 -1.02023e-02
       O -2.40277e-04  8.62274e-05 -4.46154e-04
       H  1.68406e-03  2.73810e-03 -6.21044e-03
       H -6.94835e-03 -4.84121e-04  1.27456e-03
       O -7.35790e-04  3.88647e-04  2.56376e-04
       H  4.06220e-03 -3.64295e-03 -2.31557e-03
       H -2.63322e-03 -6.33733e-04 -5.45354e-03
       O -3.93637e-04 -1.48741e-03  1.68690e-03
       H -8.69669e-04  1.25567e-03 -5.30888e-03
       H -7.77090e-04 -2.46381e-03  4.68675e-03
       O -3.58778e-04 -5.73159e-04  8.74584e-04
       H -3.40555e-03  1.51116e-03 -4.39736e-03
       H -5.29489e-03 -3.16121e-03  1.69286e-03
       O -7.03867e-04  7.38903e-04  4.27132e-04
       H -3.41194e-03  1.77009e-03 -2.78328e-03
       H  2.58188e-03 -1.82211e-03  3.02573e-03
       O -6.46400e-04  3.91522e-04 -8.24266e-04
       H  2.75764e-03 -7.50831e-03  2.25861e-03
       H -5.31657e-03  8.48800e-04  2.15027e-03
       O -2.08957e-04  4.53845e-04 -2.76620e-03
       H -1.19597e-03  3.75612e-03 -4.82525e-03
       H  1.75296e-03  1.14861e-03  1.45939e-04
       O  1.31664e-03 -2.53666e-04  1.50976e-04
       H -4.36838e-03 -3.71859e-03 -6.34460e-03
       H  3.75180e-03 -2.86241e-03 -2.79178e-03
       O -6.11307e-05  1.27922e-04  1.18185e-03
       H -1.25960e-03 -6.93329e-03 -2.89590e-03
       H  3.82899e-04  2.05455e-03 -2.03402e-03
       O -6.56942e-04 -9.09474e-05 -1.02901e-03
       H  2.85977e-03  3.89115e-03  6.50427e-03
       H  5.45526e-04 -8.88695e-03  4.49435e-04
       O -3.54960e-04 -9.88064e-04 -1.71032e-03
       H -4.88596e-04  1.06674e-03 -3.07781e-03
       H -6.53856e-03  4.73702e-03  1.97575e-03
       O -1.87600e-04  8.09387e-04  4.08641e-04
       H -7.38151e-04 -5.82772e-03 -6.93078e-04
       H  1.01624e-03 -5.18186e-03  3.54611e-03
       O -3.53039e-04  8.71027e-04 -3.70154e-05
       H  9.68614e-03  3.30346e-03  2.74852e-03
       H  1.82960e-03 -7.49378e-04  4.66653e-03
       O  1.92135e-04  2.20240e-04 -5.77961e-05
       H  1.37300e-03 -4.53897e-03  1.67573e-03
       H  5.98831e-03 -2.13448e-03  4.04980e-03
       O -4.12846e-04 -2.47539e-05 -1.08062e-03
       H -1.89326e-03 -4.78216e-03 -1.30026e-03
       H  2.08080e-03  4.28106e-03  5.17524e-03
       O  1.15864e-03 -7.41193e-04 -8.75071e-04
       H -2.23629e-03  1.47473e-03 -3.07062e-03
       H  2.27355e-03  3.82536e-04 -7.00416e-03
       O -1.52256e-03 -7.88072e-04 -4.38186e-04
       H -9.04758e-06  7.48408e-03  1.52294e-03
       H -3.07656e-03 -2.66545e-03  3.55844e-04
       O  6.15036e-04 -7.58014e-04 -5.15833e-04
       H -7.74458e-04  2.36080e-03  3.44219e-03
       H -8.52986e-03  2.59698e-03 -4.42862e-03
       O -1.07064e-03 -4.22828e-04 -9.82559e-04
       H -4.44559e-03 -1.93956e-03  3.98260e-03
       H -2.20991e-03  2.63598e-03  3.18452e-03
       O  2.45087e-04 -1.50858e-04 -1.12470e-04
       H  3.72795e-03 -4.07239e-04  5.06182e-04
       H -5.31142e-04  1.72896e-03  6.84563e-03
       O  6.02740e-05  1.94951e-04  1.29698e-03
       H  1.45562e-05 -2.49009e-03 -2.44107e-03
       H  6.53954e-04 -7.68737e-04  9.48663e-04
       O -5.19399e-04  5.04336e-04 -1.34624e-03
       H -4.53419e-03 -3.57610e-03  1.09326e-02
       H -8.85487e-04  3.56593e-03 -3.92338e-03
       O -4.42545e-04  7.73149e-05  7.40824e-04
       H  2.41518e-03 -1.91661e-03 -1.29536e-03
       H  2.19882e-03  3.76926e-03 -8.16556e-04
       O -4.93950e-04  8.89611e-05  1.47251e-03
       H  8.61987e-04 -1.76822e-03  6.97157e-03
       H -1.10312e-03 -1.88485e-03 -4.69386e-03
       O -1.14997e-04  1.18577e-03  5.07805e-05
       H  1.22825e-03  3.62821e-03  2.56672e-03
       H  3.38240e-03 -1.01028e-02  1.32877e-03
       O  2.43050e-04 -1.27775e-04 -2.47599e-03
       H -1.05417e-03 -4.81545e-03  2.75254e-03
       H -5.62230e-03  3.17627e-03  5.53346e-03
       O -1.62933e-03 -1.31317e-04  2.00598e-04
       H -1.25483e-03  5.68000e-03 -4.58275e-03
       H  3.50922e-03 -1.64152e-03  1.74350e-03
       O  7.95150e-05  1.84330e-03  1.55955e-04
       H -1.68541e-03  4.80146e-04 -2.23414e-03
       H -1.20826e-03 -1.09939e-03  1.22178e-02
       O  2.33776e-04 -5.41288e-04 -2.88453e-04
       H  4.48400e-03  5.52785e-03  9.87127e-04
       H  5.30847e-04  4.52593e-03  7.67410e-03
       O  1.46998e-03 -7.75621e-04  6.25536e-04
       H  4.37370e-03 -1.18744e-03  1.32675e-04
       H  6.43059e-04  2.59987e-03  3.26595e-03
       O  4.00438e-04  1.37814e-03  1.15125e-04
       H -9.90041e-04 -7.93484e-03 -1.73651e-03
       H -1.50449e-03 -5.98727e-03 -6.26167e-03
       O  2.76660e-05  4.15091e-04  2.56711e-04
       H -7.05373e-03 -3.87310e-03 -2.12676e-03
       H -8.07857e-04 -1.16946e-03 -9.79838e-04
       O -1.66851e-03 -1.53591e-03  6.25991e-04
       H  4.98961e-04  1.94565e-05 -9.31525e-04
       H  1.62745e-03 -2.94259e-03 -1.60159e-03
       O -1.77951e-04  5.33668e-04  1.52456e-03
       H  6.27355e-03 -8.43684e-04  6.11951e-03
       H -5.13017e-03  4.44098e-03  8.65475e-03
       O -8.32296e-05  1.20223e-03 -1.38369e-03
       H  1.08005e-03 -5.21495e-03  3.14067e-03
       H  3.16296e-03  2.42467e-03  3.05905e-03
       O -4.43279e-04 -1.42019e-03 -1.57907e-03
       H -2.98043e-03  3.05599e-03  2.09933e-04
       H  9.57277e-04 -1.60588e-03 -1.46164e-03
192
# CELL(abcABC):   16.99620    29.43815    27.67315    90.00000    90.00000    90.00000  Step:          10  Bead:      20 velocities{atomic_unit}  cell{atomic_unit}
       O -7.59127e-04 -5.31992e-04  1.80360e-03
       H -3.16686e-03  5.71644e-04 -2.05190e-03
       H  9.64215e-04 -4.28541e-03  2.36157e-03
       O -8.32105e-04  1.51060e-03 -4.12234e-04
       H  8.44139e-04 -2.86066e-03  6.37084e-03
       H  1.23183e-04  6.42620e-03 -3.01841e-03
       O -1.12797e-03  3.88607e-04 -2.22684e-03
       H  1.90169e-03  3.05802e-03 -2.65854e-03
       H -7.45364e-05 -2.08629e-03  2.50498e-04
       O -1.31715e-03 -1.72165e-04  8.92257e-04
       H  6.02796e-03 -2.57466e-03  1.45021e-03
       H -6.07033e-03  3.12545e-03  1.75263e-03
       O -9.46958e-04  6.29854e-05  6.01542e-04
       H  9.71478e-04 -1.72225e-04 -2.41286e-03
       H  3.01787e-03  1.72049e-03 -4.58939e-03
       O -3.67216e-04 -6.42901e-04 -2.50447e-03
       H -3.77251e-03 -4.75715e-03  1.77104e-03
       H -7.50002e-04  1.52226e-03  1.89551e-03
       O -1.22792e-03 -1.14048e-03  7.92261e-04
       H -9.15082e-04  4.98444e-03 -2.63537e-03
       H  1.11383e-03 -6.44400e-03  1.83537e-03
       O  1.92002e-03  3.81676e-04 -4.27210e-04
       H  4.08252e-03 -1.74883e-03 -8.64502e-04
       H -1.36738e-03  1.48136e-03  2.10243e-03
       O -5.16378e-04 -4.53199e-04 -9.12775e-04
       H  3.81020e-03 -1.35741e-05  1.96986e-03
       H -4.93802e-03  4.88134e-03 -3.14839e-03
       O -1.56919e-03  9.56200e-04  1.40866e-03
       H  4.91854e-04  6.57169e-03 -7.14359e-03
       H -7.02229e-03 -4.48591e-03 -4.44602e-03
       O -9.43457e-05  1.09000e-03  1.29084e-03
       H -2.87739e-03 -5.23033e-03  4.77272e-04
       H -3.99341e-03 -3.47049e-03  7.85393e-04
       O  1.06941e-04 -1.84035e-04  4.31528e-04
       H  6.01981e-03 -3.56818e-03  1.25765e-04
       H -5.24194e-03 -1.03664e-03  1.55108e-03
       O -5.17205e-04  9.97730e-05 -8.87592e-05
       H  2.29850e-03 -1.95229e-03 -9.07582e-04
       H -3.32008e-04  7.53901e-03 -2.84665e-04
       O -3.95004e-04 -1.81321e-03 -1.19095e-03
       H -8.13501e-03 -2.64071e-03 -1.22547e-03
       H  3.94968e-03  2.05360e-03  4.19246e-03
       O -7.73126e-04 -8.07115e-04  1.16506e-04
       H -1.15138e-05  2.73245e-03  2.34547e-03
       H  1.69470e-03  1.96733e-03  1.41322e-03
       O -2.69714e-04 -2.84540e-04 -6.59376e-04
       H  1.44527e-04  4.47182e-03 -6.74919e-04
       H -1.32888e-03 -2.32845e-03  6.59511e-04
       O  9.06725e-04  4.19012e-04 -1.55438e-03
       H -1.76819e-03  3.40131e-03  3.79801e-03
       H -8.81820e-03 -5.38041e-03 -9.42566e-06
       O  6.04386e-04  3.15236e-04 -4.40017e-05
       H -5.27626e-03  7.70879e-04  5.36325e-03
       H  1.43866e-03 -2.08705e-03  2.73351e-03
       O -9.10861e-05 -4.41202e-04  5.34779e-04
       H -1.66535e-03 -3.53330e-03 -1.66755e-03
       H  2.28517e-03 -5.15811e-04 -2.02707e-03
       O -6.92113e-04  5.45564e-04  9.85497e-04
       H -4.02234e-03 -1.83628e-03 -1.61864e-03
       H  9.13043e-03  4.04334e-03 -2.03670e-03
       O -2.43785e-04 -3.18422e-04  4.04252e-04
       H  5.14718e-03 -1.51355e-03  3.41189e-03
       H -6.03755e-04  1.81165e-03  2.30117e-03
       O  8.62152e-04  7.52369e-04  1.67984e-03
       H -2.54690e-03 -9.59546e-04 -1.05936e-03
       H  1.21824e-03 -6.33023e-03  8.42851e-04
       O  4.46585e-04 -8.92027e-04 -1.62275e-04
       H  1.38973e-03  8.65982e-04 -3.19404e-03
       H -9.76700e-05  3.82509e-03  4.93252e-04
       O -1.21456e-03 -1.02684e-03 -1.20709e-03
       H -8.95574e-03 -3.15753e-05 -7.22278e-03
       H  4.86482e-03 -1.07622e-03  1.03218e-03
       O -4.75872e-04  9.68426e-04  9.43553e-04
       H  1.30569e-03  3.18242e-03 -8.37096e-03
       H -3.37076e-03 -5.48236e-04  1.26013e-03
       O  4.89156e-05 -1.15005e-03 -6.22139e-04
       H -6.76640e-04  1.28322e-03 -5.82537e-04
       H  3.97415e-03  9.79129e-04 -2.24522e-03
       O -5.51088e-04 -3.58612e-04 -9.14651e-04
       H -3.13737e-03 -4.74315e-03 -3.02520e-03
       H  8.58447e-04  2.20147e-03  5.73258e-04
       O -1.69639e-03 -1.27805e-03  4.10188e-04
       H -6.27189e-03 -2.26268e-03 -4.82908e-03
       H -2.36848e-03  2.58978e-03  7.50476e-04
       O -7.79033e-04  4.07769e-04 -1.03013e-04
       H -2.25432e-03  3.18856e-04  6.81056e-03
       H  8.05993e-04  5.35029e-04 -2.31073e-03
       O -1.84732e-03  2.89482e-03 -3.29778e-04
       H  4.41904e-03  7.92164e-03 -3.64368e-03
       H  1.29834e-03 -1.86686e-03  4.51900e-03
       O  1.21461e-03 -7.52049e-04  6.88219e-04
       H  3.32083e-03 -9.70208e-04 -2.37282e-03
       H  3.87461e-03  5.93415e-03 -3.29333e-03
       O -4.31200e-04  1.01361e-03 -8.28033e-06
       H -6.11886e-03  2.28693e-03 -1.09438e-03
       H  2.45825e-03 -2.91146e-03  1.61730e-03
       O  1.41806e-03  7.81163e-04  2.94354e-04
       H -4.79375e-03  1.32739e-03 -1.88462e-04
       H -2.71870e-04  7.49285e-04 -1.84766e-03
       O  1.16377e-03  4.42738e-04  2.64671e-04
       H  3.34516e-03 -7.67882e-03  4.07457e-04
       H -1.97908e-03  2.39843e-03 -7.19095e-03
       O  7.63892e-04  1.17253e-03 -1.22315e-03
       H -2.86466e-05  4.24193e-03 -3.25198e-03
       H  3.43598e-03 -1.59002e-04  1.23720e-03
       O -6.31058e-04 -5.85211e-04 -2.06249e-04
       H -7.23738e-04 -9.94873e-04  4.99330e-03
       H -9.20482e-04 -6.59675e-03  7.37376e-04
       O  5.52469e-04  3.62724e-04  8.14409e-04
       H  1.33352e-03  2.16059e-03  4.18639e-03
       H -1.62052e-04 -7.12877e-04  6.41311e-03
       O -5.92619e-04 -9.69561e-04 -6.13077e-05
       H -4.53029e-04 -4.04101e-03 -7.65367e-03
       H -3.63591e-03  4.07490e-03 -5.33608e-03
       O -9.26879e-04 -8.33356e-04  7.69395e-04
       H -4.07516e-03 -1.07488e-03 -1.20430e-03
       H  1.86834e-03  3.25650e-03 -4.43641e-03
       O -1.50398e-03 -1.26290e-03 -3.81816e-04
       H  7.30230e-04 -7.11053e-03  4.03395e-03
       H  5.81817e-03 -1.76873e-03 -7.80657e-04
       O  1.40950e-04  8.86422e-04 -1.08646e-03
       H  5.75372e-03  2.92873e-03  9.63600e-05
       H -3.46456e-03 -4.02860e-03  1.37668e-04
       O -7.97308e-04 -3.08355e-04 -1.03706e-03
       H  2.62346e-03 -4.86449e-03  8.97906e-04
       H -2.82072e-03 -1.23929e-03  1.00844e-03
       O  1.47683e-03  7.17480e-04  5.35971e-04
       H -5.13539e-03 -3.72996e-03 -1.82236e-03
       H  4.69557e-03 -2.16811e-03  8.01685e-04
       O -6.35236e-04  6.68195e-04 -4.55897e-05
       H -1.14240e-03  1.91761e-03 -3.68023e-03
       H  8.22296e-05 -3.61797e-03 -8.14752e-03
       O -1.67276e-03  3.56552e-04 -1.57562e-04
       H -9.37824e-04 -6.47289e-03  4.95974e-03
       H  2.72612e-03  3.24926e-03  6.75169e-04
       O  3.45425e-04 -7.66894e-04  3.61791e-04
       H  5.28650e-04 -5.28469e-03 -8.05037e-04
       H  1.41520e-03  1.01133e-03 -3.66543e-03
       O -1.70288e-03 -1.07348e-03  8.90648e-04
       H -5.28668e-03 -3.85320e-03 -1.21328e-03
       H  3.82246e-03  2.16376e-03  1.27575e-03
       O  7.37062e-04  5.16350e-04  4.84315e-05
       H  4.91682e-04  2.47268e-03 -1.75826e-03
       H  2.70509e-03  1.03374e-03  5.92875e-04
       O -2.56981e-04  1.11458e-03  1.02353e-03
       H  1.85207e-03 -3.02804e-03 -2.21910e-03
       H -3.40313e-03 -6.00934e-03 -1.93218e-03
       O -2.25677e-04  5.68561e-04 -1.56119e-05
       H  2.71853e-03  1.93924e-03  3.85408e-03
       H -3.40916e-04 -5.37653e-04  6.24012e-03
       O  7.51536e-04 -1.86010e-03 -1.22069e-04
       H  4.72160e-03  2.29977e-03  1.33023e-03
       H  5.00399e-03  4.34496e-03  2.66996e-03
       O -5.83949e-04 -3.50084e-04 -1.09974e-04
       H -3.40857e-04  4.62632e-04  4.78015e-03
       H  2.92013e-03  6.53587e-04  4.97583e-03
       O -1.25699e-03  7.19226e-04  6.56870e-04
       H  2.28042e-03 -3.21267e-04 -1.20823e-04
       H -1.43179e-03 -1.86399e-03  1.82476e-03
       O  6.24742e-04 -5.87617e-04  5.37875e-05
       H  1.67548e-03 -5.32530e-03 -6.45945e-03
       H -3.45100e-03  1.47856e-03 -1.82890e-03
       O -3.03138e-04 -1.11213e-03  1.89624e-04
       H  7.61500e-03 -1.26888e-04 -1.87593e-03
       H  3.93521e-04 -2.78661e-03  9.94213e-04
       O  1.53251e-03 -4.13513e-04  2.05838e-04
       H  7.96591e-03 -1.82223e-03  4.12276e-03
       H  5.29066e-03  7.83148e-04  1.45832e-03
       O  1.13129e-05  3.15317e-05 -1.33647e-03
       H  1.52705e-03  7.21865e-03 -3.47290e-04
       H -4.19400e-03 -9.04451e-04  4.80771e-03
       O -8.59679e-04 -7.70659e-05 -4.63320e-04
       H -3.09265e-03  1.45717e-03  5.83079e-03
       H  4.23437e-03 -3.07360e-03 -3.56662e-03
       O -5.43332e-04  1.04609e-03  5.61850e-04
       H -3.41891e-03  1.75616e-03  4.32200e-03
       H -4.02228e-03 -2.08404e-03  3.78151e-03
       O -9.81965e-04  2.37824e-03 -1.21560e-03
       H  2.08258e-03 -4.04419e-03 -1.32086e-03
       H -3.70463e-03 -1.76831e-05 -4.13995e-03
       O  4.26997e-04  5.29837e-04 -2.12637e-05
       H -1.07504e-03  1.87382e-03 -3.05630e-03
       H  5.42994e-03  3.55311e-03 -1.22298e-03
       O -1.31856e-03  3.83664e-04 -1.18439e-03
       H  4.96402e-03 -1.97376e-03 -3.55674e-03
       H  4.56744e-03  1.16268e-03  1.17123e-03
       O -1.14662e-03  3.64082e-04 -3.48112e-04
       H -1.61124e-03 -9.11037e-03 -3.74132e-03
       H -4.53671e-03 -5.65339e-03 -3.38856e-03
       O -1.49130e-03 -7.58619e-04  3.26700e-04
       H -6.04402e-03 -3.21623e-03  4.11721e-03
       H  8.34868e-04 -4.71755e-03  1.30503e-03
192
# CELL(abcABC):   16.99620    29.43815    27.67315    90.00000    90.00000    90.00000  Step:          20  Bead:      20 velocities{atomic_unit}  cell{atomic_unit}
       O  1.47255e-03  1.75296e-03  6.35276e-06
       H -1.99059e-03 -4.05780e-03  6.91787e-04
       H  1.55667e-03 -4.35827e-03  3.24613e-03
       O  2.72402e-04 -2.77777e-04 -7.35022e-05
       H  2.25722e-03 -6.83673e-04 -5.73112e-04
       H  7.41339e-03 -3.35051e-03 -3.36606e-03
       O -5.61946e-04 -1.31975e-03 -4.76201e-05
       H  6.19902e-03 -4.68394e-04  2.58739e-03
       H -1.71556e-04  4.73906e-03 -1.25791e-03
       O  8.67952e-04  1.27112e-03 -3.97660e-04
       H  4.68190e-03 -1.27556e-03 -1.37686e-03
       H  3.39368e-03 -1.88420e-03  9.71225e-04
       O  4.49198e-05  3.33924e-04  1.62611e-04
       H  3.27292e-04  1.01754e-03 -2.56178e-03
       H -7.46447e-04  1.68330e-03  6.30695e-04
       O  5.72880e-04  1.35469e-03 -2.43629e-04
       H -3.36070e-04 -2.97564e-03  2.65570e-03
       H  6.21502e-03  5.32912e-06 -1.10600e-02
       O  1.17285e-03 -8.78858e-06  1.13070e-03
       H  7.70370e-04  4.25636e-03 -4.51514e-03
       H  2.52481e-03  7.92515e-04  8.39928e-04
       O  1.39944e-03  1.21261e-03  2.84382e-04
       H  3.72446e-03  7.13536e-03  4.35529e-03
       H -4.06267e-03 -2.51117e-03  3.52116e-03
       O  7.89963e-04 -3.99432e-05 -6.18643e-05
       H -2.25930e-03 -3.88718e-03 -5.59315e-03
       H  2.20781e-03 -4.21602e-03  8.70503e-03
       O  1.59100e-03 -1.09532e-03  6.51514e-04
       H -1.27979e-03 -1.79381e-03 -2.45104e-03
       H  1.91748e-03  2.03676e-03  7.13935e-03
       O  9.51491e-04 -1.20455e-03 -7.97360e-04
       H -9.36304e-04  2.11460e-04 -6.55756e-04
       H -3.01608e-03  3.86615e-03  8.43374e-04
       O  1.77741e-04 -1.31782e-03  6.20608e-04
       H -5.87746e-04  2.74591e-03 -1.17377e-03
       H  2.94992e-03 -9.61131e-05 -2.78797e-03
       O -2.61315e-04 -2.36157e-03  3.60421e-04
       H -2.50125e-04 -3.86003e-03  6.64812e-04
       H -5.75681e-03  3.64987e-03 -5.24248e-03
       O -3.60842e-04  2.86776e-04 -2.97229e-04
       H  3.06332e-03  6.69138e-04 -4.19731e-03
       H  1.99898e-03  2.79473e-03 -1.89326e-03
       O -1.10485e-03  7.39732e-04 -9.98647e-06
       H  1.13807e-03  4.96534e-03 -5.67666e-03
       H -2.85865e-03 -3.41285e-03 -3.14159e-04
       O  5.14666e-04  6.96546e-04 -2.23650e-04
       H  3.66757e-03 -2.69293e-03 -2.47929e-03
       H  3.54120e-04  1.48510e-03  1.25879e-03
       O -5.80604e-04 -2.29724e-04  6.24645e-04
       H -6.03023e-04  1.46336e-03 -3.03195e-03
       H  2.66459e-03 -1.21062e-03 -5.65500e-03
       O -2.24114e-03 -1.36901e-04  1.48567e-03
       H -8.66831e-03  4.55336e-03 -2.38364e-04
       H -1.01121e-03  1.60618e-03 -2.85083e-03
       O -2.57144e-04 -6.22597e-04 -1.50789e-04
       H  4.35949e-03  1.00032e-02  3.76755e-03
       H  1.36686e-03  7.57067e-04  2.67145e-03
       O  8.74147e-05  1.24670e-04 -5.21333e-04
       H -5.62003e-03  7.34932e-05 -9.51307e-04
       H  3.28522e-03  1.47581e-03 -3.86484e-03
       O -1.30768e-03 -7.39572e-04  1.78566e-03
       H -3.53237e-04 -8.07319e-05  6.85001e-04
       H  2.33194e-03  5.51076e-04 -4.87185e-04
       O -2.61728e-04  1.76944e-03  1.56567e-04
       H -2.09072e-03  3.78575e-03  4.48212e-03
       H  6.86853e-03  2.90752e-03 -3.23972e-03
       O -9.88460e-04  1.19473e-03 -1.17038e-03
       H  2.33752e-03  1.78565e-03 -1.20875e-03
       H  5.78215e-03 -1.09963e-03  4.27971e-03
       O  7.84414e-04  2.70286e-04  9.26901e-04
       H  2.15668e-03  6.37036e-04 -3.17322e-03
       H -1.10554e-03  3.30505e-03  1.11024e-03
       O -4.41649e-04  9.96096e-04 -6.84788e-05
       H  4.57467e-03 -6.34497e-03  4.04027e-03
       H  1.95819e-03 -3.74372e-03  3.33275e-03
       O -1.70508e-03  6.18362e-04 -1.00245e-03
       H -3.57677e-03  1.39440e-03 -3.24838e-03
       H -2.13728e-03 -4.11213e-03  5.48696e-03
       O  6.00713e-04  7.21456e-04 -1.31010e-04
       H  6.43397e-04 -8.01665e-05 -9.61486e-03
       H  5.74392e-04 -3.93541e-03 -3.15658e-03
       O -2.69820e-04  1.27192e-03  5.23467e-04
       H  3.44999e-03  2.52505e-03 -3.97098e-03
       H -3.28129e-03 -2.58184e-03  5.18601e-03
       O  2.54380e-04  5.78358e-04  8.78326e-05
       H -1.49091e-04 -2.98191e-03 -6.84780e-03
       H -4.44447e-03  1.31534e-03 -6.02682e-03
       O -8.24198e-04  7.38065e-04 -3.66379e-04
       H -3.29017e-03 -3.44265e-03 -6.42328e-03
       H  2.68694e-03 -1.56340e-03  4.33069e-03
       O -8.82932e-04  2.47092e-04 -3.40300e-04
       H  2.40673e-03  1.96568e-03 -3.27034e-03
       H -7.05806e-03  1.57170e-03 -2.58187e-04
       O -4.14869e-04  5.06634e-04 -1.02823e-04
       H -8.44940e-04 -1.99556e-03 -3.32037e-03
       H -2.26026e-03 -4.29642e-03  1.03947e-03
       O  7.72235e-05  2.79412e-04 -2.33566e-04
       H  3.10407e-03  6.23279e-03  2.79860e-03
       H  2.83204e-03  6.05472e-03 -2.94993e-03
       O  4.77157e-04 -1.22599e-03  2.43805e-03
       H  4.72107e-03 -3.83690e-03 -7.19011e-04
       H -8.26863e-05 -1.57593e-04  6.86088e-03
       O -3.44491e-04  1.16219e-03 -9.03314e-04
       H -5.27523e-04  1.82143e-03  1.07305e-03
       H -1.72960e-03  1.52113e-03  1.18596e-03
       O  9.76931e-04 -7.67293e-04 -7.12481e-04
       H -4.41769e-03  2.03148e-03 -8.23149e-03
       H  1.33344e-03  1.29793e-03 -6.48915e-03
       O -5.30688e-04 -4.27826e-04  9.31509e-04
       H  3.16738e-03 -1.01733e-03 -3.02938e-03
       H  7.10293e-03 -1.62602e-03 -2.99213e-03
       O -1.63915e-03  1.89103e-03 -9.93816e-04
       H -3.66978e-03 -6.57769e-04 -8.71849e-03
       H -3.14970e-03  5.24386e-03 -1.84868e-03
       O  3.09570e-04  4.01718e-04 -5.58852e-04
       H  5.74765e-04  6.23353e-03 -3.33518e-03
       H -3.59712e-03  2.88556e-03 -5.34492e-03
       O -9.03664e-05 -4.54966e-04 -5.70005e-04
       H  5.03490e-03  2.83171e-03  2.95399e-03
       H  6.20572e-03 -1.14698e-03 -7.72671e-04
       O -1.84469e-03  5.31475e-04 -1.39712e-04
       H -2.56157e-03 -4.69757e-03 -8.14623e-03
       H -6.69913e-03 -2.67108e-03 -2.79674e-03
       O -1.22236e-03  6.42948e-04  2.17799e-04
       H -4.03151e-03  1.19425e-03 -2.18662e-03
       H -4.08229e-03 -1.25239e-03 -3.03326e-04
       O -1.15014e-03  1.58225e-03  3.37253e-04
       H  3.17456e-03  4.45615e-03 -6.00354e-03
       H -1.20012e-04  1.17828e-03  2.94456e-03
       O  6.02362e-05 -4.32530e-04 -9.36230e-04
       H  4.99563e-03  2.15839e-03  4.78852e-04
       H  2.94228e-03 -2.56621e-03 -3.78032e-03
       O -1.19151e-03  2.25616e-04  1.07314e-03
       H -5.71916e-03 -5.33685e-03  4.10511e-03
       H  1.10768e-03  4.16121e-04 -9.33221e-03
       O  3.27777e-04  3.52885e-05  4.10842e-04
       H -4.32114e-04  9.66903e-04 -8.25794e-04
       H -3.38968e-03  4.34542e-03 -1.61014e-03
       O -7.93443e-04  6.04329e-04 -2.69425e-04
       H -2.62904e-03  3.71668e-03 -5.50572e-03
       H  6.74922e-04 -1.78727e-03 -1.00509e-03
       O -9.15131e-04  4.10406e-04 -6.44669e-04
       H  1.12868e-03 -1.70678e-03 -1.32877e-04
       H -7.74226e-03  4.54013e-05 -2.75196e-03
       O  6.75977e-04 -5.95027e-05 -1.04284e-04
       H  2.97441e-03  3.75740e-03 -1.55029e-03
       H  3.25666e-03  2.12687e-03 -6.77066e-04
       O -3.15902e-04 -5.86712e-04  1.52207e-04
       H -2.56623e-03 -1.38853e-03 -4.87644e-03
       H -1.02788e-03 -4.22812e-03 -1.58482e-03
       O  4.71005e-04 -1.09972e-03 -1.19757e-03
       H -9.69719e-04 -2.39839e-03 -2.41118e-03
       H -1.63001e-03  2.71659e-03  3.45706e-03
       O -9.03644e-04  1.14791e-03  1.23452e-03
       H -2.19582e-03 -2.42415e-03 -4.21830e-04
       H  1.08291e-03 -3.19663e-03 -3.57168e-03
       O  8.87100e-04 -1.08807e-03  1.59475e-03
       H  5.10941e-03 -6.62097e-04 -6.44334e-03
       H  2.09717e-03 -2.53120e-03 -4.07301e-03
       O  2.86017e-04  6.64363e-04  5.64519e-04
       H  1.22461e-04  4.48576e-04 -2.24160e-03
       H  4.83252e-03 -8.82297e-05  8.62059e-03
       O -1.49584e-03  4.91798e-04  1.68438e-04
       H -5.15238e-03  6.52886e-03 -1.96311e-03
       H -4.90679e-03 -1.66433e-03  2.47908e-03
       O -1.00473e-03  1.13066e-03  3.59023e-04
       H  2.88869e-03 -8.45976e-04  1.75760e-03
       H -2.43424e-03 -3.73897e-03 -9.87387e-04
       O -8.97860e-04  2.24015e-05 -6.17856e-04
       H -1.69978e-04  1.84042e-03  2.59443e-04
       H -1.42991e-03  3.69413e-03 -3.64227e-03
       O -5.16789e-04  1.27079e-04 -9.65940e-04
       H  1.67291e-03 -5.60716e-03 -1.77306e-03
       H -5.25097e-04 -7.41464e-04 -6.08600e-03
       O  9.38584e-04  7.35479e-04 -7.08895e-04
       H -1.27957e-03  3.14047e-03 -9.04198e-03
       H -1.12593e-03 -8.43105e-04  2.88531e-03
       O -3.62919e-04  5.77873e-04  1.42206e-03
       H -2.35765e-03  8.63125e-04  1.65629e-03
       H -1.65499e-03 -3.34549e-03  8.69599e-04
       O -1.41185e-03 -7.45282e-04 -1.19687e-04
       H -1.93884e-03  4.15954e-03  2.38373e-03
       H -1.16452e-03  8.37391e-04 -1.55517e-03
       O -1.46995e-03 -1.24579e-03  1.74316e-03
       H -5.91015e-03  5.27199e-03 -5.35575e-04
       H  4.22159e-04 -2.75081e-03  3.62873e-03
       O -1.26111e-03  1.66536e-03  1.27339e-03
       H  1.91615e-03 -3.04187e-04  7.35022e-03
       H  3.13664e-03  2.09404e-03  2.23395e-03
       O -5.34335e-04 -9.84235e-04  7.01246e-04
       H  1.75112e-03  7.90162e-03 -3.02328e-03
       H  2.03830e-03  5.92638e-04 -1.50260e-03
192
# CELL(abcABC):   16.99620    29.43815    27.67315    90.00000    90.00000    90.00000  Step:          30  Bead:      20 velocities{atomic_unit}  cell{atomic_unit}
       O -1.25998e-03 -3.41396e-04  7.42593e-04
       H  3.71689e-03  4.53568e-04  1.77268e-03
       H  4.29713e-03  8.41780e-03  5.62119e-04
       O  3.77070e-04 -3.85871e-05 -1.00408e-03
       H  4.38649e-03 -1.07579e-03 -5.98337e-03
       H -1.12616e-03 -4.62462e-03  3.75237e-04
       O  1.08705e-03  9.99230e-04  6.25203e-04
       H  1.44018e-03 -5.97132e-04 -1.19272e-03
       H -1.32205e-03  3.14467e-03 -6.30484e-03
       O  1.67409e-04 -4.44065e-04  1.58295e-04
       H -5.61700e-04  3.90420e-04 -4.71917e-03
       H -9.27505e-04  3.70029e-03  3.61844e-03
       O  7.75094e-04 -1.65960e-04 -3.00889e-04
       H -8.24947e-03  2.94009e-03 -1.02133e-03
       H  5.99779e-03 -3.70648e-05  1.85930e-03
       O -1.17146e-03 -9.65309e-05  1.57125e-03
       H  7.07217e-04  1.41904e-03  1.60007e-04
       H -3.98306e-03 -5.68265e-03 -1.41714e-03
       O  4.08062e-04  3.21781e-04 -8.26880e-04
       H -1.81507e-03 -7.64932e-03 -3.71185e-03
       H -2.24290e-03 -1.62602e-03 -1.14569e-03
       O  3.72483e-04 -7.28945e-05 -1.45059e-04
       H  6.13541e-04 -1.47824e-03  5.99958e-03
       H  6.81391e-03 -2.62748e-03 -2.54255e-03
       O  2.61999e-03  1.00821e-03 -3.67410e-04
       H -5.13326e-03 -2.65677e-03 -3.77138e-03
       H -4.93968e-03 -4.96902e-03  1.26914e-03
       O -3.89282e-04  2.87546e-04  1.05979e-03
       H -2.41479e-03 -8.15822e-03  5.85594e-03
       H -1.50537e-03 -3.39325e-04  1.16442e-03
       O  1.17193e-03  5.54638e-04  9.15296e-04
       H -2.36128e-03 -5.46061e-03  1.25752e-03
       H  1.83603e-03  6.94069e-04  2.69778e-03
       O -5.95634e-04 -9.73119e-06 -7.21153e-04
       H  5.00322e-03 -4.02204e-03  1.87528e-03