192
# CELL(abcABC):   16.99620    29.43815    27.67315    90.00000    90.00000    90.00000  Step:           0  Bead:       4 velocities{atomic_unit}  cell{atomic_unit}
       O  3.77878e-04  2.76233e-04  1.02708e-03
       H -1.52370e-03 -1.20320e-03  5.96695e-03
       H  5.04133e-03 -1.57051e-03 -1.45104e-03
       O -1.08164e-03 -5.42825e-04 -3.51255e-04
       H  1.31536e-03  4.21888e-03  6.33810e-03
       H  5.22732e-03 -1.45737e-03  4.40319e-03
       O -9.26904e-04 -4.69036e-04 -5.58306e-04
       H -5.11341e-03  4.86792e-03 -8.47182e-03
       H -4.00010e-04 -6.61802e-03  2.51108e-03
       O -5.82688e-04  3.52779e-04 -4.98662e-04
       H -6.55914e-04 -2.36063e-03 -3.37558e-03
       H -4.25656e-03  2.95789e-03  4.67332e-04
       O  1.21053e-03  2.55288e-04  5.64710e-04
       H -6.38962e-03  3.20181e-03 -3.25298e-03
       H  5.17705e-03  2.27175e-03 -1.22308e-04
       O  2.17781e-04  4.38914e-04 -3.28021e-05
       H  2.59361e-03  2.06846e-03  3.34099e-03
       H  1.62804e-03 -1.43889e-03  1.08519e-03
       O  1.16439e-03 -6.71039e-04 -2.01507e-03
       H  2.63479e-03  1.10597e-03 -6.38689e-03
       H  2.79636e-03  4.53185e-04 -1.31493e-03
       O  3.64965e-04  6.59178e-04  3.85099e-04
       H -3.48914e-03  5.22248e-03 -8.19420e-04
       H  1.47321e-03 -4.31427e-04  1.44225e-03
       O  4.54275e-04  3.11221e-05  2.67234e-05
       H  2.21526e-03  2.04109e-03 -6.13427e-03
       H  7.43842e-04  1.01988e-04  4.58987e-03
       O  4.31978e-04  1.34103e-03 -7.91726e-04
       H -2.98362e-03 -1.59580e-03  3.82896e-03
       H -1.38688e-03  2.33211e-04 -1.92079e-03
       O -1.06641e-03  6.63312e-04 -5.86360e-04
       H -1.40608e-03 -9.12995e-04 -1.98538e-03
       H -1.87884e-03  1.21297e-04 -9.38151e-04
       O  1.70277e-03  1.13673e-04 -1.00295e-03
       H -8.44912e-04 -1.22703e-03  7.53394e-03
       H -7.32976e-04 -7.45635e-03  1.92348e-03
       O -2.72791e-04 -1.66671e-04 -6.90761e-04
       H  2.75430e-03  2.99743e-03 -1.30686e-03
       H  3.93122e-03  6.05907e-03  7.76852e-03
       O -1.15073e-04  2.11061e-04 -7.27155e-04
       H  7.96569e-04 -2.87481e-04  7.93646e-03
       H -6.53104e-04  6.14060e-03  6.53178e-04
       O -1.19429e-04  7.26018e-04  1.74067e-04
       H  2.25260e-03 -3.46433e-04  2.19417e-03
       H -3.48900e-03  9.30289e-04  5.66406e-03
       O -9.77442e-05  3.56688e-04 -2.81573e-04
       H  3.37534e-03  2.78695e-03  4.39698e-04
       H -3.63962e-04 -5.02968e-03  1.11944e-03
       O  1.57077e-03  6.21138e-04 -1.15820e-03
       H -6.15501e-03  3.24586e-03 -3.51030e-03
       H -2.47092e-03 -8.91082e-04 -2.38424e-03
       O -1.21169e-03 -1.78053e-04 -1.18250e-03
       H  5.88288e-03 -1.20526e-03  3.43338e-04
       H  8.90559e-04 -2.70531e-03 -4.57005e-03
       O  6.58126e-04  2.97808e-04  1.28292e-04
       H -9.45748e-05  1.91331e-03 -1.14409e-03
       H  1.88674e-03 -5.37467e-03 -3.70013e-03
       O -2.69214e-04  8.69498e-04  1.24728e-03
       H  4.56678e-03 -3.25762e-03 -2.11838e-03
       H  4.70568e-04 -3.10392e-04  4.64582e-04
       O -3.62839e-05 -5.73859e-04 -2.35344e-04
       H -2.79502e-03  3.21213e-03 -4.42642e-03
       H  1.83833e-03 -5.66023e-03 -6.08613e-03
       O -6.66078e-05 -3.72490e-04  7.54992e-04
       H  8.98908e-04  1.57893e-03  1.24984e-03
       H  8.97956e-04  1.51875e-03  8.67750e-04
       O  1.06930e-03  1.04843e-05 -8.21521e-04
       H  1.50057e-03 -6.35927e-03  4.03351e-03
       H  5.28549e-05 -5.91141e-04 -8.39251e-04
       O  6.72627e-04  1.49984e-04  5.13229e-04
       H  1.05746e-03  3.63498e-04  8.82422e-03
       H  2.96862e-03  2.20640e-04 -8.45499e-04
       O -1.53247e-03 -9.57088e-04  1.15314e-03
       H  5.48147e-03  3.41719e-03 -6.29131e-05
       H  3.25813e-03  4.99861e-03  3.25088e-03
       O -1.35886e-04 -1.28284e-03 -5.26760e-04
       H  1.95001e-03  1.08981e-03 -3.69568e-03
       H -7.61996e-04  2.44629e-03  3.88052e-03
       O  6.20130e-04 -2.07013e-04 -1.16444e-04
       H -1.27118e-03  1.39285e-03  2.98630e-03
       H -2.66104e-03  3.12597e-03 -8.45038e-03
       O -1.27060e-03 -5.89232e-06  1.27992e-03
       H  4.13143e-04  8.95206e-04  2.37745e-03
       H -8.47844e-05 -2.14577e-03  1.05994e-03
       O -2.22370e-04 -3.06195e-05  3.62531e-04
       H -4.47824e-03 -1.18850e-03  3.13794e-03
       H -2.27620e-03 -2.22489e-03 -2.79268e-03
       O -2.24660e-04 -6.30545e-04  9.17453e-04
       H -3.24970e-03 -1.53984e-03 -3.13071e-03
       H -2.39597e-03  3.72760e-03 -1.90271e-03
       O -7.02605e-04 -2.95454e-04  1.18236e-03
       H  3.56065e-03  2.38315e-03 -6.14935e-03
       H -1.85686e-03 -3.64374e-03  5.98371e-03
       O  1.14718e-03  1.10003e-03  4.98690e-04
       H -3.87011e-03 -2.20691e-03 -1.12501e-03
       H  2.74448e-03 -1.60992e-03  3.45984e-03
       O  5.53878e-04  4.89852e-04 -4.15402e-04
       H -1.93099e-03 -1.59474e-03 -1.70210e-03
       H  9.27604e-03 -2.56135e-03  1.57691e-03
       O  6.72208e-04  1.04052e-03  1.76430e-03
       H -1.38448e-03 -1.62077e-03  4.10830e-04
       H  6.48197e-04 -2.37468e-03  1.27705e-03
       O  5.43714e-04 -1.77127e-03  3.50470e-04
       H  7.54825e-03 -1.50243e-04  3.50660e-03
       H -2.86053e-03  1.46454e-03 -9.24990e-03
       O -1.87552e-04 -3.49952e-04 -2.65626e-04
       H  4.08856e-03 -2.91458e-03  6.35153e-04
       H  8.33077e-04  5.20404e-03  2.00305e-03
       O  4.72028e-04  3.71266e-04 -2.42283e-05
       H -3.01360e-03  4.94416e-03  5.70145e-03
       H  2.42350e-03  2.08162e-03 -1.59345e-03
       O -1.10382e-03 -1.06860e-04  8.21097e-04
       H -1.72543e-03  3.36874e-03 -7.93256e-03
       H -2.37893e-03 -5.98470e-04 -3.25633e-03
       O -2.97891e-05 -1.05165e-03  1.98623e-06
       H -4.11440e-03  2.28174e-03 -6.18077e-03
       H -5.67160e-04  4.95606e-03 -6.93399e-04
       O  7.50717e-05  2.43343e-05  4.34363e-04
       H  2.98664e-03 -2.72294e-03  5.20928e-03
       H -2.04783e-03  1.67430e-04 -4.76232e-03
       O -6.82558e-04  5.50662e-04  7.90997e-04
       H  5.74577e-03 -3.84763e-04  9.65285e-03
       H -1.66396e-03  2.25679e-03 -1.67826e-03
       O  1.70533e-03 -8.38024e-04  3.10537e-04
       H -9.02218e-03  3.07813e-05 -3.40196e-03
       H  4.17364e-03  3.02690e-03  1.53151e-03
       O  1.92402e-03 -6.59423e-04 -6.63789e-04
       H  4.60111e-03  1.83386e-03 -4.84150e-03
       H -3.10302e-03  7.16835e-03  2.13297e-03
       O -1.36362e-03 -3.62210e-04  1.81248e-03
       H -1.60398e-03 -2.40229e-04  7.69582e-03
       H -2.14938e-04  2.45573e-03  2.56279e-03
       O  6.49279e-04 -1.06508e-03 -2.93775e-04
       H  7.01480e-04  3.76629e-03  7.69053e-04
       H  3.25392e-04 -8.74288e-03  2.27642e-03
       O -2.67674e-04  3.72657e-04 -4.81797e-04
       H  1.06336e-02  1.35275e-03 -2.91136e-03
       H  6.24222e-03 -2.96140e-04  1.35853e-04
       O  1.98566e-04 -2.37938e-04  4.51436e-04
       H -2.19065e-03  3.27649e-03 -3.07187e-03
       H -1.34636e-03  2.20008e-03 -6.43464e-05
       O  2.17790e-03 -2.58869e-04 -6.19561e-04
       H  7.25450e-03 -1.47475e-03  6.89681e-04
       H  5.76698e-03 -1.99687e-03 -3.93660e-03
       O  4.21456e-04  1.49473e-04  2.20298e-03
       H  1.32706e-03 -2.07509e-04  5.09308e-03
       H -7.01238e-03 -3.88388e-04 -1.25507e-03
       O  2.42417e-04  8.36381e-04 -4.05957e-04
       H  5.68076e-04  3.70619e-04 -8.58566e-04
       H  1.51243e-03 -1.48199e-04 -1.80720e-03
       O -5.06469e-04 -6.71189e-04 -2.64064e-04
       H -4.34819e-03 -3.65641e-04 -2.09145e-03
       H -2.39323e-03  6.02440e-03  4.88536e-03
       O -8.87696e-04 -3.79499e-04  7.02240e-04
       H  5.60006e-04  4.15055e-03 -3.66753e-03
       H  2.44245e-03 -2.66276e-04  4.29184e-03
       O -1.72323e-03  2.63454e-04  8.50223e-04
       H -9.00900e-04  1.22740e-03  5.01361e-03
       H -2.64656e-04 -3.13720e-03  2.44570e-03
       O  1.02952e-03 -1.03958e-03 -5.59601e-04
       H  5.75031e-03  1.15824e-03  4.50137e-03
       H  1.68872e-03 -5.13771e-03 -1.25783e-03
       O -7.08868e-04  6.02138e-04  1.67712e-04
       H -2.69702e-03  1.73988e-03  2.84211e-03
       H  3.42615e-03  1.00272e-03  2.64398e-03
       O -5.38955e-04  5.30644e-04 -1.42127e-03
       H  4.75373e-03  5.10851e-03 -5.42672e-04
       H -4.88736e-03  2.80229e-03 -4.05863e-03
       O  1.09768e-03 -1.54279e-04  7.45502e-04
       H  2.10829e-03 -1.88227e-04  3.12377e-03
       H -1.09600e-03 -4.88908e-03  1.03708e-03
       O -1.07496e-04 -1.07053e-03  5.19339e-04
       H  6.22719e-03  1.13638e-03  2.75425e-04
       H  8.82164e-03  5.20092e-03 -3.78357e-04
       O -6.57164e-04  6.52884e-04 -4.64895e-06
       H  5.03069e-03  4.76172e-03  6.80758e-04
       H  1.10815e-03 -6.33143e-03  1.26343e-03
       O -1.04605e-03 -6.62918e-04 -2.25986e-04
       H -6.20987e-04 -6.11993e-03  3.19238e-03
       H -4.58333e-03  5.15382e-04  2.58996e-03
       O  8.17987e-04  9.41420e-04  3.89995e-04
       H -1.96226e-03 -3.79892e-03  1.73161e-03
       H -4.39173e-03 -1.37044e-03  5.50631e-03
       O  3.94695e-04 -3.43259e-04  1.46841e-03
       H  4.68635e-04  2.34809e-03  8.14406e-04
       H  3.79661e-03 -3.16654e-03  1.05566e-03
       O  1.05114e-03 -1.23505e-03 -3.15063e-04
       H -3.81393e-03  5.21175e-03 -4.13924e-04
       H  7.30011e-03  3.34837e-03  5.15992e-03
       O  3.51858e-04 -3.95995e-04  7.93975e-04
       H  2.06474e-03  5.74674e-03 -4.89595e-03
       H -1.93370e-03 -1.22531e-03 -6.37742e-03
192
# CELL(abcABC):   16.99620    29.43815    27.67315    90.00000    90.00000    90.00000  Step:          10  Bead:       4 velocities{atomic_unit}  cell{atomic_unit}
       O  1.45551e-03  5.51484e-04 -4.47308e-04
       H  8.99516e-04 -2.32283e-03 -4.56371e-03
       H  1.57307e-03 -7.30806e-03  3.93381e-03
       O  5.45337e-04  7.60355e-04 -3.00545e-05
       H -1.20760e-04 -1.45169e-03 -4.94908e-05
       H -5.87235e-04  1.64746e-03  6.05305e-04
       O -8.54088e-04  1.16039e-03 -8.61070e-05
       H  3.17606e-03 -3.03864e-03 -8.60791e-04
       H  1.27933e-03  2.58491e-03 -1.48414e-03
       O -9.40823e-04 -8.16611e-04 -4.91196e-05
       H  2.71701e-03 -1.51135e-03 -1.34760e-03
       H -1.10761e-03 -2.74660e-03  3.57624e-03
       O  1.35207e-03  1.91616e-03 -1.56746e-03
       H -3.36415e-03 -4.82693e-03  1.20729e-03
       H  7.80812e-04  1.17257e-03 -2.63523e-03
       O  4.33813e-04  1.70188e-03 -1.59285e-03
       H -2.95329e-03  5.92361e-03  9.47143e-03
       H -4.97711e-03 -5.74635e-03  6.48929e-04
       O -2.82543e-04 -6.69694e-04 -4.64705e-04
       H -4.01809e-03 -6.33080e-04 -6.35407e-05
       H  3.13406e-03 -1.06373e-03  7.24175e-03
       O  2.16047e-04 -1.29639e-03 -4.20048e-04
       H  4.28139e-03 -1.45769e-03  1.39546e-04
       H -1.23614e-03 -6.30495e-03  1.82910e-03
       O -2.30755e-05  1.23025e-03  9.93458e-04
       H -9.61086e-03 -2.70645e-03  4.59199e-03
       H  6.34389e-04  5.06508e-03  1.26420e-03
       O  1.62423e-04 -4.14235e-04 -5.17046e-04
       H  6.31998e-04  6.76328e-03  4.00728e-03
       H  1.69008e-03 -2.04327e-03  4.10756e-03
       O  1.17045e-03  5.97235e-04  5.61355e-04
       H -6.94772e-03 -1.36937e-03 -1.22092e-03
       H  5.04558e-03 -5.29890e-03  7.42320e-03
       O -5.33555e-04  5.45391e-04  1.45544e-03
       H -9.06431e-04 -2.37502e-03  5.02388e-03
       H  3.77811e-03 -2.23674e-03  3.96126e-03
       O -2.20019e-05  1.28514e-03 -7.01869e-05
       H -3.50385e-03 -4.60853e-03 -1.04943e-03
       H -4.44880e-03 -2.63195e-03  1.53033e-03
       O -4.95664e-04 -1.46444e-04  4.68359e-04
       H  4.79532e-03 -3.93807e-04 -8.98433e-07
       H  4.42403e-03 -5.90777e-03 -3.68246e-03
       O  1.81478e-04 -3.71283e-04 -2.32899e-04
       H  3.31737e-03 -3.17789e-04 -6.67424e-03
       H -4.49712e-03 -4.12076e-03  4.82679e-03
       O  4.93800e-05 -1.29971e-03  4.65050e-04
       H -5.51016e-03  2.32311e-03  3.92274e-03
       H  3.16163e-03 -3.52449e-03  1.43823e-02
       O  1.51293e-04 -9.85171e-04 -1.03075e-03
       H  8.95138e-04  2.32025e-03  4.65646e-03
       H  4.31339e-06  4.66020e-03 -1.63970e-03
       O -6.00657e-04  7.16097e-04 -1.41603e-03
       H  1.15045e-03  1.25061e-03  1.95630e-03
       H  1.80719e-03 -2.79463e-03  3.03415e-03
       O  3.98395e-04 -9.49910e-04  1.31682e-04
       H  1.69937e-03  5.68378e-04  8.16942e-04
       H -2.59735e-03 -6.02145e-03 -3.71431e-03
       O -2.50327e-03 -7.23094e-05 -7.07483e-04
       H -6.06623e-04  8.17132e-03  1.50719e-03
       H -5.93426e-03  5.12730e-03  6.49776e-03
       O -1.65121e-03  1.82854e-04  5.84972e-04
       H  4.18628e-03 -2.92767e-03  5.78433e-03
       H  3.52794e-03  1.74632e-03 -2.78681e-03
       O -3.34338e-04  1.09344e-04  4.43065e-04
       H -5.28232e-03  2.12573e-03  5.81882e-03
       H -1.80997e-03  1.02971e-03 -3.57466e-03
       O  4.88254e-05 -1.07830e-03  6.58135e-04
       H  8.12934e-04  5.19763e-03 -6.59639e-04
       H -1.58876e-03  1.42550e-03  3.05112e-04
       O  5.40535e-05  7.76260e-05 -5.06365e-04
       H -2.57354e-03  2.15011e-04 -1.31173e-03
       H -4.02227e-03 -1.49704e-04  3.68932e-03
       O  3.94925e-04  1.40513e-03 -5.11524e-04
       H  2.78075e-03 -2.77050e-03  4.24601e-03
       H -3.50002e-03 -1.32694e-03 -6.08732e-03
       O -3.08475e-04  1.23932e-03 -6.81840e-04
       H -5.13403e-03 -3.57095e-03  2.66082e-03
       H  5.22286e-03 -6.62726e-04  8.15025e-03
       O  1.23136e-05 -4.33664e-04  6.08996e-04
       H -1.36860e-04 -1.40243e-03 -1.41962e-03
       H  1.52595e-03 -2.35803e-05  5.35661e-04
       O -2.37651e-04 -2.38996e-04  7.62691e-04
       H  1.38630e-03  2.35667e-03  3.35112e-03
       H  5.37756e-03  1.37093e-03 -5.14858e-03
       O  1.19332e-03 -4.85614e-04 -4.05805e-04
       H -4.31807e-03  2.65899e-03 -4.16678e-03
       H -6.33131e-04 -4.20163e-04  4.35285e-03
       O -3.52477e-04 -8.80979e-04  7.13494e-04
       H  3.24920e-03  8.39419e-04  2.91329e-03
       H -1.58422e-03 -3.66230e-03  1.13902e-03
       O  2.29659e-04  2.37477e-03 -8.37526e-04
       H -1.27854e-03  1.76092e-03 -4.82765e-03
       H  5.24721e-03  4.98900e-03  1.08526e-02
       O -1.38388e-03 -5.28073e-04  1.08176e-03
       H -1.76447e-04 -3.80155e-03 -1.12728e-03
       H -2.21021e-03  4.05921e-03 -4.32821e-03
       O -5.01217e-05 -1.17047e-03  1.88282e-04
       H  3.20687e-03 -2.46119e-03  3.22119e-03
       H -9.13338e-04  2.93475e-03 -1.55901e-03
       O -3.16383e-03  1.21189e-03  8.51876e-05
       H -1.20151e-03 -2.40643e-03 -4.43857e-03
       H  2.67941e-03 -3.52670e-04 -2.19971e-03
       O -2.40764e-04  3.19055e-04 -1.55947e-03
       H  6.54710e-04 -1.83070e-04  6.48723e-04
       H -1.53523e-03  3.71638e-04 -1.82497e-03
       O -1.03126e-03  9.03468e-04 -6.84787e-04
       H -4.09893e-03 -4.83621e-03 -2.59748e-03
       H  4.65594e-03  3.72996e-04 -1.65388e-03
       O -2.03836e-04 -7.61846e-04 -8.80648e-04
       H -5.87625e-05 -3.19957e-03  2.84953e-03
       H -5.55048e-03 -1.24673e-03 -1.00019e-03
       O -1.46902e-03 -1.23956e-03  6.98601e-06
       H  6.05609e-04  9.22341e-04 -5.22197e-05
       H -4.30216e-04 -4.76059e-03  2.94522e-03
       O  3.38782e-04 -1.19123e-04 -7.30498e-04
       H  1.69468e-03 -1.08885e-03  7.38653e-03
       H  3.48532e-03 -4.26478e-03 -3.17383e-03
       O -3.14706e-04 -6.64900e-04  2.30968e-05
       H -3.22591e-03 -6.24826e-03 -2.29794e-03
       H  3.88914e-03 -2.22178e-03  6.93874e-04
       O  1.66890e-04 -2.59207e-04  1.84465e-04
       H  3.59488e-03  2.83445e-03 -4.09596e-03
       H  4.85462e-03 -7.42695e-04  3.64232e-03
       O  5.17567e-04 -1.65475e-03 -3.37275e-07
       H -2.87554e-03 -2.67498e-03  6.79088e-03
       H -9.50665e-03  2.65992e-03 -2.82082e-03
       O -7.78058e-05 -6.39462e-04 -4.99624e-04
       H  7.67604e-03  3.66643e-03  3.68123e-03
       H -3.25311e-03  4.34450e-03  2.39024e-03
       O -6.77166e-04 -2.28165e-04  5.50863e-04
       H -2.58106e-03 -6.07833e-03 -7.66680e-03
       H -2.50307e-04 -3.39490e-03  1.37800e-03
       O  3.01813e-04  3.59467e-04  8.73075e-04
       H  6.24537e-03  7.83680e-04 -3.76072e-03
       H -5.45480e-03  9.17755e-04  2.97271e-04
       O  4.29599e-04 -4.86684e-04 -1.85544e-04
       H  8.38056e-04  1.88048e-03 -9.45624e-04
       H -1.74110e-03  4.75762e-03  8.60835e-03
       O  9.47142e-04  4.88526e-04 -1.34260e-04
       H -2.85354e-03 -3.60123e-03 -6.15952e-03
       H  4.17532e-03 -9.27358e-03 -1.23590e-03
       O  1.29924e-03 -4.76326e-04  1.35226e-03
       H -4.71538e-03 -2.10256e-03 -1.25576e-03
       H -3.95164e-03  6.09907e-04 -3.10935e-03
       O -2.34239e-03  1.20382e-04  4.61871e-04
       H -1.34983e-03 -2.69760e-03 -5.77075e-03
       H -6.40298e-03  8.74209e-03 -5.02350e-03
       O -2.16904e-03 -2.33288e-04  2.27892e-04
       H -6.33212e-03 -4.81743e-03 -3.57429e-03
       H  2.16283e-03 -3.19190e-04 -8.76671e-04
       O  1.06551e-04 -2.85771e-04 -1.19903e-03
       H  5.60888e-03 -9.98428e-04  2.78927e-03
       H  1.64217e-03 -9.79084e-04  2.36546e-03
       O  6.26680e-04 -1.49643e-03  9.51978e-04
       H -2.16659e-03  2.86018e-03  3.78778e-03
       H  7.94266e-03 -4.23653e-04 -4.89777e-04
       O -4.07807e-05  3.33571e-04  3.20518e-04
       H  9.53263e-04  6.00533e-03 -6.77406e-05
       H -3.10332e-03  3.64030e-03  5.93441e-03
       O -1.02749e-03 -6.66337e-04  5.69307e-04
       H  3.51359e-04 -5.89773e-03 -6.09172e-03
       H -4.44462e-03  1.57363e-03 -2.45392e-03
       O -1.09371e-03 -3.58023e-04 -1.46811e-03
       H -2.29624e-03 -5.34207e-03 -2.60959e-03
       H -8.32966e-04  3.33571e-03 -4.20898e-04
       O  3.61542e-04  2.10456e-03 -1.00517e-03
       H  1.82891e-03  7.08811e-04 -2.47314e-03
       H  3.87616e-03 -4.40373e-03 -1.09782e-03
       O  1.13617e-04 -3.55495e-04  2.39081e-04
       H  3.94601e-03 -5.19154e-03 -5.74633e-03
       H -4.07356e-03  1.07808e-03 -5.84787e-03
       O -3.73428e-04  1.10616e-04  8.46843e-04
       H  2.15385e-03  3.03052e-05  5.74933e-04
       H  6.29619e-03 -2.49569e-03 -1.25919e-03
       O -6.22863e-04  1.23538e-03  1.63364e-04
       H -6.55769e-04  1.27834e-03  5.19718e-03
       H -3.69492e-03 -2.01586e-03 -3.66541e-03
       O -2.64020e-04 -1.02940e-03 -2.47527e-04
       H  1.10431e-03  3.29141e-03 -6.93853e-04
       H  1.05948e-03  2.24237e-03 -4.12576e-04
       O  7.56587e-05 -3.66579e-04  4.24259e-04
       H -1.91036e-03  6.38864e-03  4.35097e-03
       H -2.08685e-03  5.12303e-04 -2.77625e-03
       O -1.50609e-04 -3.33866e-04  1.23802e-03
       H  7.07449e-03 -2.62736e-03  2.93676e-03
       H -1.93698e-03  2.04714e-03 -3.01697e-03
       O -7.38151e-04 -2.28890e-04 -6.45836e-04
       H  7.43552e-04 -2.39756e-03 -1.93432e-03
       H -3.18659e-03 -2.51803e-04 -2.75336e-03
       O  4.22246e-04 -4.54447e-04  7.92895e-04
       H -3.78263e-03  1.51928e-05 -3.81114e-03
       H -4.17152e-03  6.52630e-03  3.43087e-03
192
# CELL(abcABC):   16.99620    29.43815    27.67315    90.00000    90.00000    90.00000  Step:          20  Bead:       4 velocities{atomic_unit}  cell{atomic_unit}
       O -4.83025e-04  1.13765e-05  7.62134e-04
       H  3.91859e-03  1.87779e-03  2.48627e-03
       H -1.42089e-03  5.03344e-03 -2.79480e-04
       O  5.55798e-04 -3.63595e-04 -1.57836e-04
       H  1.86384e-03  9.87113e-03 -2.39764e-03
       H  3.80011e-04 -8.18292e-04  1.00189e-03
       O -1.30396e-03  1.32774e-04 -1.84224e-04
       H  1.45557e-03 -1.67245e-03  1.57253e-05
       H  5.94283e-03  3.05866e-03  9.00519e-04
       O  2.73611e-03 -1.58642e-03 -9.56164e-04
       H  1.69696e-03 -4.78359e-03 -9.67192e-04
       H  8.07958e-05 -1.87780e-03 -5.52134e-04
       O  1.63720e-03 -9.66498e-04 -1.06947e-03
       H -2.70162e-03  2.95802e-03 -4.82419e-04
       H -6.38144e-04  1.88106e-03 -2.30278e-03
       O  3.24236e-04 -8.78184e-06 -3.28591e-04
       H  3.47032e-03  4.49959e-04  2.76168e-03
       H -3.36272e-03  2.25733e-03 -2.02522e-03
       O  7.96474e-04  2.48493e-04  6.05873e-04
       H  5.80622e-04 -1.89470e-03 -2.83326e-03
       H -5.30462e-05 -1.01607e-03  3.51039e-03
       O -9.00117e-04 -3.52298e-04 -8.38716e-05
       H -4.25442e-03 -5.65723e-03  5.11194e-03
       H -1.86072e-03 -6.19652e-04 -1.28781e-03
       O  9.03137e-04 -1.54873e-04 -7.36452e-04
       H  2.63606e-03 -1.32823e-03 -3.43108e-03
       H  3.92096e-03  5.29792e-03 -4.07563e-03
       O  2.16862e-04  1.64111e-04  4.75322e-04
       H  1.14434e-03  8.93761e-04 -3.31365e-04
       H -6.74356e-05 -3.12837e-03 -2.02605e-03
       O  1.17924e-03  4.66160e-05  1.88698e-03
       H  3.43252e-03  5.12758e-03 -4.53836e-03
       H -4.85490e-03  1.24225e-03  5.18130e-03
       O  1.28455e-03 -8.19642e-04  7.59893e-05
       H -5.42507e-04 -1.89893e-03  9.46596e-03
       H -6.41249e-04 -1.23742e-03  2.87945e-03
       O  6.64974e-04 -8.74459e-04 -1.66946e-03
       H -6.64359e-03  6.81340e-04 -4.77490e-04
       H -1.86790e-03 -2.62656e-03  7.19297e-03
       O -5.71243e-04 -9.29454e-04  1.22570e-03
       H -3.28403e-03 -5.43482e-04  3.67316e-03
       H -4.93999e-03 -2.25221e-03 -2.15474e-03
       O  1.90828e-04  8.00041e-04  8.71005e-04
       H -2.18803e-03 -1.00025e-03 -4.02135e-03
       H -4.59454e-03  4.93489e-03  9.35638e-04
       O -2.26853e-03  1.09725e-03  1.43150e-03
       H  1.39759e-03 -2.02084e-03  1.36967e-03
       H -3.95189e-03  1.55679e-03 -1.20998e-03
       O  6.75207e-05 -1.89057e-04 -3.05030e-04
       H  9.52669e-04 -2.47510e-03  1.44583e-03
       H  7.61043e-03  2.86002e-04  1.77250e-03
       O -1.21719e-03  4.56035e-04  3.38178e-04
       H  2.60102e-05  3.36993e-03  9.37373e-04
       H -3.40546e-03  3.20048e-03  2.63802e-04
       O  8.27159e-04 -1.09323e-05  1.79415e-03
       H -7.84330e-04 -6.37107e-05 -5.10464e-03
       H -3.54465e-03  4.11730e-03  4.51053e-03
       O -5.28203e-04 -1.42764e-04 -8.59339e-05
       H  2.04434e-03  3.13066e-03 -1.09648e-03
       H -1.03880e-03 -2.14350e-03 -2.56279e-03
       O  5.34308e-04 -5.60472e-04  5.80804e-04
       H  4.92451e-03  6.78837e-03 -2.68983e-03
       H  5.17581e-04 -2.73115e-03  6.10909e-03
       O -1.24140e-03 -8.77333e-04 -4.09258e-04
       H -2.10291e-03  2.56822e-03 -2.22266e-03
       H  2.67530e-03  2.15876e-03 -7.32112e-03
       O -4.85407e-04  2.51114e-04  9.26151e-04
       H  2.02594e-03 -4.34451e-03  1.32171e-05
       H -7.76580e-04  7.14391e-03  9.71207e-04
       O  1.13302e-03  1.91386e-03  1.08829e-04
       H -7.07031e-03  1.68102e-03  2.41466e-03
       H -5.04374e-03 -5.22677e-03 -3.56313e-04
       O -3.23059e-04 -9.63652e-04 -1.66739e-03
       H -2.43114e-04  5.17003e-03 -5.16330e-03
       H -3.80238e-03  3.08602e-03  7.04019e-03
       O -2.79856e-05 -1.08140e-03  2.22312e-03
       H -3.05484e-03 -2.65680e-03  4.82033e-03
       H  8.08100e-03  3.89392e-03  6.97358e-04
       O -1.12213e-03 -9.48715e-04 -8.60072e-04
       H -1.46031e-03  3.68292e-03 -1.57717e-03
       H -5.22687e-03 -1.84704e-03 -3.63119e-03
       O -4.36035e-04 -1.13059e-03 -6.81905e-04
       H -2.91903e-03 -1.13721e-03 -9.33443e-04
       H -9.47162e-04  2.01965e-03  1.20705e-03
       O  7.50273e-04 -1.29693e-03  8.79169e-04
       H  1.46017e-03  1.91996e-03 -1.55476e-03
       H -3.32806e-03 -8.26579e-04 -8.76005e-04
       O -5.76801e-04  6.04049e-04  1.15658e-03
       H -1.37941e-03  1.61211e-04 -2.76102e-03
       H  1.96632e-03  9.26496e-04  1.89577e-03
       O -1.04406e-03 -3.15286e-04 -1.60814e-04
       H -2.48196e-03  4.05278e-03 -8.10506e-04
       H -3.47640e-03 -1.34757e-03 -2.69218e-03
       O -1.26411e-03 -6.65929e-05  4.32123e-04
       H -9.92220e-04  1.05759e-03 -3.80949e-03
       H -4.12594e-03  2.16029e-03 -3.82774e-03
       O -9.92533e-04 -5.88348e-04  3.19142e-04
       H  2.47317e-03 -3.17583e-03 -1.48126e-03
       H  4.33209e-03  2.86858e-03 -7.08261e-04
       O  7.75695e-05 -3.93051e-05 -9.65072e-05
       H  1.55865e-03  9.41398e-03  3.10561e-03
       H  3.74007e-03  1.66029e-03  4.26770e-03
       O -6.22228e-04 -3.63078e-04 -8.30711e-04
       H -6.20853e-03 -6.31072e-04 -2.57158e-03
       H -2.33321e-03 -1.17998e-03 -4.45448e-03
       O -8.42290e-06  4.93329e-04 -6.18649e-04
       H -3.76355e-03 -5.37593e-04 -1.67800e-03
       H  6.58677e-03  1.89166e-03  1.60137e-03
       O -2.49949e-04  1.12481e-03  9.80442e-04
       H  2.80147e-03 -3.38972e-03 -3.76783e-04
       H  4.26074e-04 -6.71208e-03 -5.33687e-03
       O  7.94544e-04  1.27542e-03  1.45971e-03
       H  3.28849e-03  3.91092e-03 -4.17630e-03
       H -2.32489e-03  1.26119e-03 -1.35940e-03
       O -1.45948e-03 -7.12651e-04 -1.21032e-04
       H  4.85393e-04 -2.92300e-03 -9.23653e-05
       H  1.32721e-04  1.55473e-03 -2.94142e-04
       O  1.52123e-04  3.14721e-04 -3.63517e-04
       H -2.30684e-03  3.64511e-03  1.59212e-03
       H  4.43704e-04  6.80395e-03  2.36335e-03
       O -7.45393e-05 -2.91735e-05  6.29307e-04
       H  2.01725e-03  6.44875e-03  1.66563e-04
       H -5.34778e-03 -2.19968e-03 -4.89681e-03
       O  4.45541e-04 -2.30504e-04 -7.58759e-04
       H -5.80352e-04 -3.04334e-03  7.50644e-03
       H -7.20163e-04 -3.32377e-03 -1.77245e-03
       O  1.04066e-03  6.25670e-06  1.08309e-03
       H -1.76606e-04  2.06074e-03  3.17903e-03
       H  3.73994e-03 -5.83341e-03  3.87031e-03
       O -6.17931e-05  4.02083e-04  4.07683e-04
       H  5.73024e-03  2.67630e-03  2.98648e-03
       H  8.12732e-04  6.14563e-03 -4.20725e-03
       O -5.38690e-04  1.63257e-05  2.11866e-04
       H -6.07095e-03  1.67066e-03  4.15383e-03
       H  2.78268e-03 -2.19208e-03 -1.30922e-03
       O  3.15611e-04 -5.92761e-04 -2.20194e-03
       H  8.15544e-05  1.78237e-03 -5.69168e-04
       H -1.66580e-03 -7.81839e-04 -1.63058e-03
       O -7.82706e-04 -4.86113e-04  2.00928e-04
       H -3.22738e-04  1.89269e-03 -4.76163e-03
       H  8.16802e-03  2.11485e-03 -1.71569e-03
       O -5.44618e-04  1.01980e-03  6.59813e-06
       H  8.19057e-03  7.86355e-03  5.28745e-04
       H -2.03283e-04 -5.72204e-03  3.19222e-03
       O -1.09422e-04 -2.69401e-05  3.98005e-04
       H -2.01135e-03  1.90579e-05 -4.61243e-03
       H  4.74961e-04  1.70355e-03  5.99542e-03
       O -6.80294e-05 -9.85997e-04 -1.96313e-03
       H  9.67537e-03 -1.74685e-03 -2.99439e-04
       H  2.41018e-05  3.50310e-03  6.02016e-04
       O  1.03605e-03  5.81645e-04 -1.20848e-04
       H  5.47200e-03  4.79952e-04  2.52578e-03
       H -5.05179e-03 -2.77580e-03 -8.74099e-03
       O -7.48578e-04 -4.97225e-04  7.44849e-04
       H -2.55719e-03  1.53555e-03 -2.59401e-03
       H  1.32298e-03  5.16142e-03  8.68107e-04
       O  8.29167e-04 -8.05183e-04  6.76958e-04
       H -3.40655e-03 -1.53461e-03  2.34023e-03
       H -2.14767e-03  5.75634e-03 -4.72291e-03
       O  8.18732e-04 -5.95915e-05 -1.32025e-03
       H  1.19012e-04 -2.14762e-03 -7.06741e-04
       H  2.23224e-03  3.58618e-03 -2.45382e-03
       O -1.17563e-03 -5.92231e-04 -1.93499e-04
       H  1.84957e-03  3.21928e-03 -4.66271e-03
       H  2.84351e-03 -1.79192e-04 -1.14947e-03
       O  1.72906e-03  1.22286e-04 -1.58168e-03
       H  2.06487e-03  1.13660e-03  4.65889e-03
       H  2.93372e-04  6.83811e-03  1.15325e-03
       O  1.49100e-03  8.69188e-04 -8.85123e-05
       H -2.19739e-03 -1.61616e-04 -2.78938e-03
       H -2.92118e-03 -7.22585e-04 -5.47036e-03
       O -1.01312e-03 -1.19514e-04  1.63641e-03
       H  7.23841e-03 -3.32244e-03  3.29589e-03
       H  2.39155e-03  3.01153e-03  3.52653e-03
       O -4.42016e-04  1.54488e-03  1.56574e-03
       H -1.01881e-03  3.58597e-03 -2.09119e-03
       H  2.50877e-03  5.61574e-03 -2.27080e-04
       O  8.09704e-05  4.86211e-04 -6.91839e-04
       H  1.54139e-03  2.82684e-03 -1.02600e-03
       H  2.01519e-03 -6.78742e-03 -7.96403e-03
       O  5.33431e-04  5.69664e-04  7.06823e-04
       H -2.65829e-03 -2.57273e-03 -5.09414e-03
       H -1.75039e-03 -5.04994e-03 -7.22404e-03
       O  1.00112e-03 -1.59826e-03  2.70737e-04
       H  3.51278e-04 -3.20883e-03  4.26778e-03
       H  2.57809e-03 -5.43284e-03 -2.72669e-03
       O  2.64277e-04  7.24986e-04 -9.57633e-04
       H  8.23733e-04 -1.31575e-03  3.10774e-03
       H  1.52573e-03  3.58474e-03 -1.59333e-03
       O  7.47226e-05  7.29036e-04 -1.74333e-03
       H  3.03838e-03  3.99287e-03 -3.15306e-03
       H  3.43906e-03  1.91786e-03 -3.65470e-03
192
# CELL(abcABC):   16.99620    29.43815    27.67315    90.00000    90.00000    90.00000  Step:          30  Bead:       4 velocities{atomic_unit}  cell{atomic_unit}
       O  6.24682e-04 -1.67525e-03 -3.35509e-04
       H -2.26778e-03 -5.50716e-04  2.60729e-03
       H  3.30525e-04 -5.02468e-03  2.20266e-03
       O -1.73302e-03 -2.11184e-04 -2.33158e-04
       H  2.89759e-03  5.82966e-03  1.99144e-03
       H  3.75563e-03  7.40292e-04  4.44528e-03
       O  3.03284e-04  2.25834e-04 -4.70415e-04
       H  6.28123e-03 -2.07927e-04  4.18566e-03
       H -1.43468e-03 -3.34182e-03 -9.74107e-04
       O  3.67129e-04 -1.16763e-03 -1.12856e-03
       H -2.18262e-03  3.12506e-03  5.31691e-03
       H -1.81032e-04  1.69453e-03 -6.07521e-03
       O  1.54823e-05  6.57957e-04  1.11129e-03
       H -7.74163e-04 -2.63585e-04  3.99232e-03
       H  1.02569e-03  4.05044e-03  4.91823e-03
       O  8.40140e-04 -3.40575e-04 -7.66361e-04
       H -3.12421e-03 -8.83079e-04  5.36008e-03
       H  4.58278e-03 -1.31222e-04  4.89086e-03
       O -4.05917e-04 -4.85089e-04  2.41551e-04
       H -6.52792e-03 -6.13813e-04 -2.21904e-03
       H  6.13149e-04 -3.10383e-03  1.25050e-03
       O  5.87202e-05  2.52673e-03 -1.62992e-03
       H -1.67149e-03  2.83902e-03  1.26134e-03
       H -5.89293e-03  4.38035e-03 -1.39397e-04
       O -4.46660e-04  1.41924e-03  6.85828e-04
       H  4.30514e-03 -2.98645e-03  6.59504e-03
       H -3.89307e-03  3.81265e-03  1.11751e-02
       O  7.15885e-04 -3.46377e-04 -1.81225e-04
       H -2.62940e-03  7.45785e-03 -3.02056e-03
       H  2.32236e-03  4.89494e-03 -2.05727e-03
       O -1.00253e-03 -7.41643e-05 -5.81048e-04
       H  8.82659e-03  2.53381e-03  1.94146e-03
       H -5.36718e-03 -1.12229e-03 -2.35360e-03
       O  2.90458e-04  1.59579e-03 -4.24664e-04
       H -2.19874e-03  1.60913e-03 -4.42146e-03