192
# CELL(abcABC):   16.99620    29.43815    27.67315    90.00000    90.00000    90.00000  Step:           0  Bead:       8 positions{atomic_unit}  cell{atomic_unit}
       O -8.22215e+00 -9.94239e+00 -1.31733e+01
       H  7.30664e+00 -1.09711e+01 -1.36322e+01
       H -6.70615e+00 -1.09482e+01 -1.35006e+01
       O -3.97298e+00 -2.58228e+00 -1.31734e+01
       H -5.44033e+00 -3.61131e+00 -1.36317e+01
       H -2.45697e+00 -3.58820e+00 -1.35005e+01
       O -3.95756e+00 -1.25543e+01 -7.82386e-01
       H -3.95604e+00 -1.43515e+01 -2.29143e-01
       H -4.14759e+00 -1.25671e+01 -2.59983e+00
       O -8.20667e+00 -5.19495e+00 -7.82227e-01
       H -8.20527e+00 -6.99211e+00 -2.28860e-01
       H -8.39642e+00 -5.20788e+00 -2.59970e+00
       O -4.52495e+00 -1.21366e+01 -6.25523e+00
       H -6.04104e+00 -1.11308e+01 -6.58223e+00
       H -3.05766e+00 -1.11077e+01 -6.71383e+00
       O  8.22247e+00 -4.77716e+00 -6.25561e+00
       H  6.70639e+00 -3.77128e+00 -6.58235e+00
       H -7.30644e+00 -3.74813e+00 -6.71411e+00
       O  8.20650e+00 -9.52435e+00 -7.70064e+00
       H  8.39647e+00 -9.51190e+00 -9.51809e+00
       H  8.20529e+00 -7.72704e+00 -7.14768e+00
       O -4.54027e+00 -2.16431e+00 -7.70075e+00
       H -4.35006e+00 -2.15153e+00 -9.51816e+00
       H -4.54166e+00 -3.67089e-01 -7.14744e+00
       O -8.22211e+00 -9.94193e+00  6.63469e-01
       H  7.30672e+00 -1.09707e+01  2.04633e-01
       H -6.70609e+00 -1.09478e+01  3.36365e-01
       O -3.97290e+00 -2.58257e+00  6.63081e-01
       H -5.44032e+00 -3.61148e+00  2.04655e-01
       H -2.45688e+00 -3.58848e+00  3.35971e-01
       O -3.95760e+00 -1.25545e+01  1.30538e+01
       H -3.95614e+00 -1.43517e+01  1.36071e+01
       H -4.14757e+00 -1.25673e+01  1.12363e+01
       O -8.20656e+00 -5.19529e+00  1.30545e+01
       H -8.20517e+00 -6.99250e+00  1.36078e+01
       H -8.39634e+00 -5.20824e+00  1.12370e+01
       O -4.52490e+00 -1.21367e+01  7.58138e+00
       H -6.04102e+00 -1.11309e+01  7.25435e+00
       H -3.05757e+00 -1.11078e+01  7.12272e+00
       O  8.22232e+00 -4.77760e+00  7.58065e+00
       H  6.70627e+00 -3.77169e+00  7.25392e+00
       H -7.30657e+00 -3.74862e+00  7.12211e+00
       O  8.20656e+00 -9.52478e+00  6.13597e+00
       H  8.39651e+00 -9.51229e+00  4.31849e+00
       H  8.20527e+00 -7.72747e+00  6.68889e+00
       O -4.54025e+00 -2.16471e+00  6.13560e+00
       H -4.34999e+00 -2.15183e+00  4.31818e+00
       H -4.54168e+00 -3.67533e-01  6.68897e+00
       O -8.22212e+00  4.77724e+00 -1.31733e+01
       H  7.30671e+00  3.74833e+00 -1.36320e+01
       H -6.70607e+00  3.77135e+00 -1.35002e+01
       O -3.97288e+00  1.21369e+01 -1.31734e+01
       H -5.44030e+00  1.11079e+01 -1.36317e+01
       H -2.45689e+00  1.11310e+01 -1.35006e+01
       O -3.95757e+00  2.16435e+00 -7.82368e-01
       H -3.95607e+00  3.67109e-01 -2.29207e-01
       H -4.14756e+00  2.15166e+00 -2.59983e+00
       O -8.20667e+00  9.52420e+00 -7.81868e-01
       H -8.20527e+00  7.72699e+00 -2.28645e-01
       H -8.39652e+00  9.51128e+00 -2.59932e+00
       O -4.52494e+00  2.58246e+00 -6.25501e+00
       H -6.04100e+00  3.58821e+00 -6.58223e+00
       H -3.05758e+00  3.61139e+00 -6.71360e+00
       O  8.22236e+00  9.94146e+00 -6.25587e+00
       H  6.70631e+00  1.09474e+01 -6.58279e+00
       H -7.30653e+00  1.09705e+01 -6.71435e+00
       O  8.20665e+00  5.19438e+00 -7.70097e+00
       H  8.39659e+00  5.20693e+00 -9.51844e+00
       H  8.20533e+00  6.99167e+00 -7.14797e+00
       O -4.54026e+00  1.25545e+01 -7.70081e+00
       H -4.34992e+00  1.25674e+01 -9.51823e+00
       H -4.54169e+00  1.43517e+01 -7.14749e+00
       O -8.22210e+00  4.77691e+00  6.62996e-01
       H  7.30665e+00  3.74808e+00  2.04431e-01
       H -6.70613e+00  3.77091e+00  3.36028e-01
       O -3.97279e+00  1.21369e+01  6.63306e-01
       H -5.44019e+00  1.11079e+01  2.05006e-01
       H -2.45681e+00  1.11309e+01  3.36133e-01
       O -3.95757e+00  2.16479e+00  1.30545e+01
       H -3.95616e+00  3.67575e-01  1.36077e+01
       H -4.14769e+00  2.15200e+00  1.12370e+01
       O -8.20659e+00  9.52434e+00  1.30546e+01
       H -8.20522e+00  7.72713e+00  1.36079e+01
       H -8.39644e+00  9.51145e+00  1.12371e+01
       O -4.52499e+00  2.58228e+00  7.58148e+00
       H -6.04100e+00  3.58814e+00  7.25437e+00
       H -3.05766e+00  3.61126e+00  7.12297e+00
       O  8.22229e+00  9.94203e+00  7.58108e+00
       H  6.70627e+00  1.09480e+01  7.25419e+00
       H -7.30655e+00  1.09710e+01  7.12260e+00
       O  8.20668e+00  5.19493e+00  6.13567e+00
       H  8.39670e+00  5.20749e+00  4.31823e+00
       H  8.20535e+00  6.99219e+00  6.68874e+00
       O -4.54018e+00  1.25546e+01  6.13603e+00
       H -4.34989e+00  1.25674e+01  4.31861e+00
       H -4.54161e+00  1.43518e+01  6.68925e+00
       O  2.75877e-01 -9.94198e+00 -1.31737e+01
       H -1.19147e+00 -1.09709e+01 -1.36323e+01
       H  1.79191e+00 -1.09478e+01 -1.35009e+01
       O  4.52479e+00 -2.58220e+00 -1.31736e+01
       H  3.05750e+00 -3.61120e+00 -1.36322e+01
       H  6.04084e+00 -3.58815e+00 -1.35003e+01
       O  4.54038e+00 -1.25538e+01 -7.82378e-01
       H  4.54166e+00 -1.43510e+01 -2.29173e-01
       H  4.35042e+00 -1.25666e+01 -2.59983e+00
       O  2.91382e-01 -5.19489e+00 -7.82498e-01
       H  2.92775e-01 -6.99208e+00 -2.29179e-01
       H  1.01240e-01 -5.20770e+00 -2.59994e+00
       O  3.97307e+00 -1.21369e+01 -6.25482e+00
       H  2.45707e+00 -1.11310e+01 -6.58187e+00
       H  5.44043e+00 -1.11080e+01 -6.71350e+00
       O -2.76167e-01 -4.77714e+00 -6.25484e+00
       H -1.79215e+00 -3.77120e+00 -6.58193e+00
       H  1.19122e+00 -3.74822e+00 -6.71327e+00
       O -2.91294e-01 -9.52406e+00 -7.70061e+00
       H -1.01153e-01 -9.51128e+00 -9.51804e+00
       H -2.92737e-01 -7.72684e+00 -7.14734e+00
       O  3.95740e+00 -2.16468e+00 -7.70029e+00
       H  4.14711e+00 -2.15178e+00 -9.51779e+00
       H  3.95613e+00 -3.67477e-01 -7.14700e+00
       O  2.75838e-01 -9.94166e+00  6.63265e-01
       H -1.19143e+00 -1.09706e+01  2.04532e-01
       H  1.79197e+00 -1.09474e+01  3.36068e-01
       O  4.52471e+00 -2.58218e+00  6.62891e-01
       H  3.05743e+00 -3.61117e+00  2.04240e-01
       H  6.04080e+00 -3.58806e+00  3.36089e-01
       O  4.54037e+00 -1.25543e+01  1.30539e+01
       H  4.54173e+00 -1.43516e+01  1.36070e+01
       H  4.35050e+00 -1.25670e+01  1.12364e+01
       O  2.91297e-01 -5.19502e+00  1.30541e+01
       H  2.92732e-01 -6.99225e+00  1.36074e+01
       H  1.01206e-01 -5.20786e+00  1.12367e+01
       O  3.97310e+00 -1.21368e+01  7.58177e+00
       H  2.45707e+00 -1.11309e+01  7.25464e+00
       H  5.44051e+00 -1.11080e+01  7.12302e+00
       O -2.76100e-01 -4.77767e+00  7.58136e+00
       H -1.79210e+00 -3.77177e+00  7.25428e+00
       H  1.19125e+00 -3.74871e+00  7.12290e+00
       O -2.91340e-01 -9.52458e+00  6.13593e+00
       H -1.01282e-01 -9.51181e+00  4.31852e+00
       H -2.92762e-01 -7.72734e+00  6.68916e+00
       O  3.95728e+00 -2.16475e+00  6.13602e+00
       H  4.14704e+00 -2.15175e+00  4.31853e+00
       H  3.95603e+00 -3.67615e-01  6.68942e+00
       O  2.75872e-01  4.77775e+00 -1.31735e+01
       H -1.19145e+00  3.74868e+00 -1.36320e+01
       H  1.79192e+00  3.77189e+00 -1.35005e+01
       O  4.52473e+00  1.21369e+01 -1.31737e+01
       H  3.05744e+00  1.11080e+01 -1.36325e+01
       H  6.04082e+00  1.11311e+01 -1.35004e+01
       O  4.54033e+00  2.16480e+00 -7.82502e-01
       H  4.54166e+00  3.67553e-01 -2.29384e-01
       H  4.35052e+00  2.15214e+00 -2.60000e+00
       O  2.91442e-01  9.52423e+00 -7.82681e-01
       H  2.92837e-01  7.72701e+00 -2.29452e-01
       H  1.01299e-01  9.51146e+00 -2.60013e+00
       O  3.97319e+00  2.58230e+00 -6.25496e+00
       H  2.45717e+00  3.58819e+00 -6.58198e+00
       H  5.44056e+00  3.61109e+00 -6.71379e+00
       O -2.76125e-01  9.94167e+00 -6.25515e+00
       H -1.79212e+00  1.09476e+01 -6.58222e+00
       H  1.19126e+00  1.09706e+01 -6.71377e+00
       O -2.91369e-01  5.19475e+00 -7.70046e+00
       H -1.01380e-01  5.20765e+00 -9.51793e+00
       H -2.92793e-01  6.99195e+00 -7.14718e+00
       O  3.95737e+00  1.25543e+01 -7.70076e+00
       H  4.14703e+00  1.25673e+01 -9.51824e+00
       H  3.95606e+00  1.43514e+01 -7.14726e+00
       O  2.75794e-01  4.77734e+00  6.62959e-01
       H -1.19152e+00  3.74832e+00  2.04499e-01
       H  1.79186e+00  3.77147e+00  3.35887e-01
       O  4.52464e+00  1.21373e+01  6.62988e-01
       H  3.05745e+00  1.11082e+01  2.04218e-01
       H  6.04076e+00  1.11314e+01  3.36450e-01
       O  4.54041e+00  2.16499e+00  1.30543e+01
       H  4.54178e+00  3.67749e-01  1.36074e+01
       H  4.35054e+00  2.15228e+00  1.12368e+01
       O  2.91308e-01  9.52457e+00  1.30538e+01
       H  2.92715e-01  7.72735e+00  1.36071e+01
       H  1.01225e-01  9.51181e+00  1.12363e+01
       O  3.97315e+00  2.58235e+00  7.58152e+00
       H  2.45713e+00  3.58829e+00  7.25455e+00
       H  5.44048e+00  3.61122e+00  7.12279e+00
       O -2.76008e-01  9.94202e+00  7.58171e+00
       H -1.79205e+00  1.09479e+01  7.25468e+00
       H  1.19134e+00  1.09710e+01  7.12317e+00
       O -2.91416e-01  5.19510e+00  6.13606e+00
       H -1.01371e-01  5.20795e+00  4.31863e+00
       H -2.92777e-01  6.99228e+00  6.68938e+00
       O  3.95729e+00  1.25546e+01  6.13612e+00
       H  4.14688e+00  1.25676e+01  4.31864e+00
       H  3.95603e+00  1.43518e+01  6.68952e+00
192
# CELL(abcABC):   16.99620    29.43815    27.67315    90.00000    90.00000    90.00000  Step:          10  Bead:       8 positions{atomic_unit}  cell{atomic_unit}
       O -8.14063e+00 -9.93714e+00 -1.31495e+01
       H  7.18411e+00 -1.10066e+01 -1.37553e+01
       H -6.57917e+00 -1.10564e+01 -1.37718e+01
       O -3.99774e+00 -2.58611e+00 -1.31895e+01
       H -5.48519e+00 -3.62869e+00 -1.36818e+01
       H -2.54028e+00 -3.67076e+00 -1.36540e+01
       O -3.98997e+00 -1.25548e+01 -7.96148e-01
       H -3.89221e+00 -1.42721e+01 -4.73439e-02
       H -4.21665e+00 -1.28196e+01 -2.45618e+00
       O -8.26382e+00 -5.18970e+00 -7.94100e-01
       H -8.12078e+00 -7.04909e+00 -4.45042e-01
       H -8.68995e+00 -5.23947e+00 -2.62776e+00
       O -4.49470e+00 -1.21586e+01 -6.26737e+00
       H -5.89068e+00 -1.11829e+01 -6.59553e+00
       H -2.92893e+00 -1.11001e+01 -6.62838e+00
       O  8.23570e+00 -4.76008e+00 -6.24964e+00
       H  6.79147e+00 -3.73010e+00 -6.56839e+00
       H -7.21157e+00 -3.77422e+00 -6.61971e+00
       O  8.26882e+00 -9.53046e+00 -7.68329e+00
       H  8.56857e+00 -9.58165e+00 -9.56338e+00
       H  8.17783e+00 -7.75882e+00 -7.24179e+00
       O -4.61674e+00 -2.14023e+00 -7.65027e+00
       H -4.24234e+00 -2.07560e+00 -9.59622e+00
       H -4.59594e+00 -3.52536e-01 -7.12134e+00
       O -8.24441e+00 -9.95110e+00  6.54984e-01
       H  7.17561e+00 -1.10047e+01  2.41682e-01
       H -6.74463e+00 -1.08301e+01  1.02968e-01
       O -3.93814e+00 -2.60614e+00  7.13294e-01
       H -5.49432e+00 -3.72384e+00  3.60319e-01
       H -2.59550e+00 -3.52713e+00  5.00457e-01
       O -3.99751e+00 -1.25038e+01  1.30275e+01
       H -4.27049e+00 -1.43840e+01  1.34165e+01
       H -4.01309e+00 -1.27212e+01  1.11031e+01
       O -8.18321e+00 -5.18694e+00  1.29721e+01
       H -7.99408e+00 -7.08732e+00  1.35146e+01
       H -8.29820e+00 -5.24674e+00  1.10575e+01
       O -4.55360e+00 -1.21470e+01  7.70370e+00
       H -5.98377e+00 -1.09884e+01  7.11646e+00
       H -2.88944e+00 -1.08071e+01  7.30532e+00
       O  8.24307e+00 -4.76365e+00  7.60152e+00
       H  6.71719e+00 -3.96850e+00  7.56699e+00
       H -7.24332e+00 -3.60459e+00  7.22899e+00
       O  8.10793e+00 -9.50545e+00  6.14024e+00
       H  8.25588e+00 -9.84656e+00  4.45487e+00
       H  7.67831e+00 -7.67655e+00  6.90516e+00
       O -4.58678e+00 -2.14146e+00  6.08745e+00
       H -4.48858e+00 -1.95342e+00  4.27166e+00
       H -4.47564e+00 -3.76795e-01  6.96190e+00
       O -8.27753e+00  4.76884e+00 -1.32394e+01
       H  7.36469e+00  3.82131e+00 -1.37660e+01
       H -6.83676e+00  3.82578e+00 -1.34755e+01
       O -3.97783e+00  1.21387e+01 -1.31956e+01
       H -5.50345e+00  1.12871e+01 -1.36621e+01
       H -2.26561e+00  1.11779e+01 -1.35966e+01
       O -3.95506e+00  2.19935e+00 -8.01248e-01
       H -4.19639e+00  5.85108e-01 -5.63526e-02
       H -4.41722e+00  2.15058e+00 -2.68326e+00
       O -8.19974e+00  9.46886e+00 -7.42047e-01
       H -8.05424e+00  7.81660e+00 -2.78351e-01
       H -8.33682e+00  9.86746e+00 -2.44837e+00
       O -4.50966e+00  2.58553e+00 -6.32208e+00
       H -6.09809e+00  3.46528e+00 -6.61791e+00
       H -3.08166e+00  3.57106e+00 -6.57911e+00
       O  8.24603e+00  9.97230e+00 -6.27142e+00
       H  6.79072e+00  1.08719e+01 -6.19959e+00
       H -7.22421e+00  1.11959e+01 -6.58186e+00
       O  8.16265e+00  5.22810e+00 -7.74359e+00
       H  8.28591e+00  5.02057e+00 -9.56968e+00
       H  8.33228e+00  7.06569e+00 -7.44793e+00
       O -4.64046e+00  1.25526e+01 -7.73619e+00
       H -4.35754e+00  1.26419e+01 -9.35649e+00
       H -4.80898e+00  1.45991e+01 -7.09753e+00
       O -8.19686e+00  4.81352e+00  6.57909e-01
       H  7.23899e+00  3.87479e+00  1.46353e-01
       H -6.76575e+00  3.38243e+00  2.75075e-01
       O -3.98840e+00  1.21182e+01  6.10007e-01
       H -5.44724e+00  1.10255e+01  1.93677e-01
       H -2.53054e+00  1.12458e+01  6.03466e-01
       O -3.96375e+00  2.13224e+00  1.29983e+01
       H -3.81675e+00  1.10003e-01  1.34675e+01
       H -4.54019e+00  2.28354e+00  1.12119e+01
       O -8.15625e+00  9.48899e+00  1.30335e+01
       H -8.20382e+00  7.66676e+00  1.36103e+01
       H -8.27764e+00  9.56190e+00  1.10125e+01
       O -4.49178e+00  2.58414e+00  7.61399e+00
       H -6.13980e+00  3.58251e+00  7.09679e+00
       H -2.84158e+00  3.66456e+00  7.04899e+00
       O  8.21183e+00  9.92004e+00  7.60314e+00
       H  6.46600e+00  1.11363e+01  7.39616e+00
       H -7.27552e+00  1.09576e+01  7.25099e+00
       O  8.20346e+00  5.18411e+00  6.11408e+00
       H  8.62952e+00  5.52671e+00  4.20901e+00
       H  8.46552e+00  6.75763e+00  6.94258e+00
       O -4.56855e+00  1.25815e+01  6.15917e+00
       H -4.36681e+00  1.29021e+01  4.37958e+00
       H -4.76193e+00  1.43520e+01  6.77828e+00
       O  3.48871e-01 -9.90880e+00 -1.31689e+01
       H -1.27652e+00 -1.09474e+01 -1.33036e+01
       H  1.73748e+00 -1.12205e+01 -1.35483e+01
       O  4.50481e+00 -2.50685e+00 -1.31560e+01
       H  3.16211e+00 -3.56054e+00 -1.33880e+01
       H  6.00383e+00 -3.67904e+00 -1.34130e+01
       O  4.58609e+00 -1.26000e+01 -7.58153e-01
       H  4.57531e+00 -1.44915e+01 -1.40304e-02
       H  4.32290e+00 -1.24862e+01 -2.80701e+00
       O  2.65775e-01 -5.15189e+00 -7.45968e-01
       H  2.49258e-01 -6.79925e+00 -9.26297e-02
       H  4.95983e-02 -5.20913e+00 -2.53523e+00
       O  3.99858e+00 -1.21191e+01 -6.22359e+00
       H  2.24346e+00 -1.12010e+01 -6.53558e+00
       H  5.40347e+00 -1.13121e+01 -6.92232e+00
       O -2.84661e-01 -4.78998e+00 -6.23545e+00
       H -1.87525e+00 -3.78025e+00 -6.84646e+00
       H  1.03707e+00 -3.83895e+00 -6.62223e+00
       O -2.72689e-01 -9.56603e+00 -7.67266e+00
       H -2.21338e-01 -9.80968e+00 -9.34889e+00
       H -2.62193e-01 -7.76378e+00 -7.01223e+00
       O  3.87433e+00 -2.17639e+00 -7.72706e+00
       H  4.10009e+00 -2.31505e+00 -9.58686e+00
       H  3.92720e+00 -4.29270e-01 -7.41788e+00
       O  2.88646e-01 -9.95548e+00  6.95671e-01
       H -1.05802e+00 -1.12141e+01  1.32717e-01
       H  1.82599e+00 -1.09168e+01  3.20385e-01
       O  4.57045e+00 -2.56220e+00  7.01593e-01
       H  2.90254e+00 -3.75568e+00  5.49263e-01
       H  5.92746e+00 -3.51269e+00  2.93751e-01
       O  4.60046e+00 -1.25208e+01  1.30848e+01
       H  4.52069e+00 -1.45448e+01  1.36992e+01
       H  4.23079e+00 -1.25728e+01  1.13780e+01
       O  2.87152e-01 -5.16699e+00  1.31059e+01
       H -1.47161e-01 -7.16865e+00  1.35432e+01
       H -2.42062e-01 -5.24967e+00  1.12168e+01
       O  4.01051e+00 -1.21294e+01  7.54585e+00
       H  2.50391e+00 -1.10045e+01  7.52257e+00
       H  5.24933e+00 -1.09343e+01  6.83404e+00
       O -2.07716e-01 -4.82150e+00  7.58051e+00
       H -1.70413e+00 -3.90543e+00  7.17722e+00
       H  1.16241e+00 -3.68515e+00  7.05492e+00
       O -3.03352e-01 -9.49559e+00  6.18427e+00
       H -3.79419e-01 -9.37869e+00  4.17311e+00
       H -3.17299e-01 -7.67921e+00  6.62049e+00
       O  3.98067e+00 -2.18386e+00  6.09363e+00
       H  4.18958e+00 -2.00377e+00  4.51953e+00
       H  3.82589e+00 -3.68973e-01  6.61086e+00
       O  2.19408e-01  4.79269e+00 -1.31392e+01
       H -1.20819e+00  3.86655e+00 -1.38471e+01
       H  1.72355e+00  3.83953e+00 -1.36585e+01
       O  4.52259e+00  1.20666e+01 -1.31778e+01
       H  3.26193e+00  1.09090e+01 -1.40211e+01
       H  5.89195e+00  1.12256e+01 -1.33423e+01
       O  4.44716e+00  2.25038e+00 -8.04130e-01
       H  4.46339e+00  5.15626e-01 -6.88568e-02
       H  4.38846e+00  2.11722e+00 -2.67412e+00
       O  2.65583e-01  9.54915e+00 -7.42346e-01
       H  3.26874e-01  7.66538e+00 -2.66663e-01
       H  4.32715e-02  9.41157e+00 -2.58479e+00
       O  3.95433e+00  2.53111e+00 -6.18820e+00
       H  2.41570e+00  3.75490e+00 -6.62162e+00
       H  5.40361e+00  3.80213e+00 -6.48690e+00
       O -2.65707e-01  9.95816e+00 -6.26504e+00
       H -1.84737e+00  1.07438e+01 -6.79210e+00
       H  1.22201e+00  1.11856e+01 -6.54246e+00
       O -3.26742e-01  5.16180e+00 -7.71615e+00
       H -1.88218e-01  5.01129e+00 -9.63385e+00
       H -4.15872e-01  7.11993e+00 -6.97617e+00
       O  3.93131e+00  1.25902e+01 -7.67678e+00
       H  4.34379e+00  1.28098e+01 -9.63167e+00
       H  3.87608e+00  1.42836e+01 -7.04344e+00
       O  2.94017e-01  4.76566e+00  6.02519e-01
       H -1.30240e+00  3.63816e+00  2.02137e-01
       H  1.86889e+00  3.75758e+00  3.18911e-01
       O  4.44460e+00  1.20967e+01  6.34985e-01
       H  3.00342e+00  1.11508e+01  1.48282e-01
       H  6.27860e+00  1.13660e+01  3.95045e-01
       O  4.57444e+00  2.24752e+00  1.30036e+01
       H  4.63484e+00  4.59262e-01  1.36621e+01
       H  4.44077e+00  2.16217e+00  1.12716e+01
       O  3.20898e-01  9.50870e+00  1.29988e+01
       H  4.28790e-01  7.78280e+00  1.35161e+01
       H -8.09803e-02  9.34260e+00  1.11889e+01
       O  3.95571e+00  2.57414e+00  7.55218e+00
       H  2.42418e+00  3.45403e+00  7.44863e+00
       H  5.64835e+00  3.62481e+00  7.26211e+00
       O -2.04806e-01  9.89681e+00  7.64525e+00
       H -1.79518e+00  1.07952e+01  7.47315e+00
       H  1.09450e+00  1.08229e+01  7.14967e+00
       O -3.21886e-01  5.16743e+00  6.09597e+00
       H -1.92382e-01  5.30279e+00  4.11769e+00
       H -1.34085e-01  6.85577e+00  6.77625e+00
       O  4.05133e+00  1.25454e+01  6.14208e+00
       H  3.98927e+00  1.27557e+01  4.37013e+00
       H  3.65161e+00  1.42108e+01  6.67142e+00
192
# CELL(abcABC):   16.99620    29.43815    27.67315    90.00000    90.00000    90.00000  Step:          20  Bead:       8 positions{atomic_unit}  cell{atomic_unit}
       O -8.18866e+00 -1.00074e+01 -1.31314e+01
       H  7.20505e+00 -1.07446e+01 -1.34863e+01
       H -6.49364e+00 -1.11475e+01 -1.38322e+01
       O -3.93983e+00 -2.53610e+00 -1.31889e+01
       H -5.84320e+00 -3.49513e+00 -1.35731e+01
       H -2.63383e+00 -3.41900e+00 -1.38347e+01
       O -4.05196e+00 -1.25811e+01 -8.44405e-01
       H -3.77183e+00 -1.42831e+01 -2.21666e-02
       H -4.14710e+00 -1.26681e+01 -2.64448e+00
       O -8.26004e+00 -5.07690e+00 -7.93534e-01
       H -8.07420e+00 -6.88022e+00 -3.99703e-01
       H -8.89472e+00 -5.03462e+00 -2.59728e+00
       O -4.46799e+00 -1.22046e+01 -6.19390e+00
       H -5.97818e+00 -1.13600e+01 -6.48845e+00
       H -2.64961e+00 -1.13368e+01 -7.00491e+00
       O  8.28090e+00 -4.77903e+00 -6.38017e+00
       H  6.97095e+00 -3.48746e+00 -6.63701e+00
       H -7.18625e+00 -3.68515e+00 -6.36969e+00
       O  8.15892e+00 -9.55700e+00 -7.67145e+00
       H  8.39592e+00 -9.26427e+00 -9.33476e+00
       H  8.29230e+00 -7.65374e+00 -7.10115e+00
       O -4.59950e+00 -2.21261e+00 -7.66373e+00
       H -4.06657e+00 -2.20247e+00 -9.45462e+00
       H -4.75177e+00 -2.54762e-01 -7.07130e+00
       O -8.30164e+00 -9.87933e+00  6.86909e-01
       H  7.35599e+00 -1.08129e+01  1.90197e-01
       H -6.74662e+00 -1.10199e+01  1.36162e-01
       O -3.93800e+00 -2.55626e+00  6.88440e-01
       H -5.44650e+00 -3.66960e+00  5.32841e-01
       H -2.21803e+00 -3.66637e+00  4.23002e-01
       O -3.98760e+00 -1.24906e+01  1.30789e+01
       H -4.16912e+00 -1.44898e+01  1.35288e+01
       H -4.20803e+00 -1.28538e+01  1.11759e+01
       O -8.20428e+00 -5.18823e+00  1.30418e+01
       H -7.87766e+00 -7.04611e+00  1.33834e+01
       H -8.17751e+00 -5.31776e+00  1.12231e+01
       O -4.48647e+00 -1.21025e+01  7.68027e+00
       H -5.93522e+00 -1.11990e+01  7.30977e+00
       H -2.94214e+00 -1.09170e+01  7.65170e+00
       O  8.31142e+00 -4.72313e+00  7.55926e+00
       H  6.46404e+00 -3.75625e+00  7.18453e+00
       H -7.08738e+00 -3.71664e+00  7.21938e+00
       O  8.12073e+00 -9.49126e+00  6.15100e+00
       H  8.33102e+00 -9.80102e+00  4.23030e+00
       H  7.73300e+00 -7.71928e+00  7.01357e+00
       O -4.63971e+00 -2.05206e+00  6.11935e+00
       H -4.67749e+00 -1.90142e+00  4.16055e+00
       H -4.19064e+00 -4.14946e-01  6.91350e+00
       O -8.29102e+00  4.73174e+00 -1.33050e+01
       H  7.45889e+00  3.68637e+00 -1.36340e+01
       H -6.63856e+00  3.80524e+00 -1.33768e+01
       O -3.99617e+00  1.21538e+01 -1.31980e+01
       H -5.61250e+00  1.13433e+01 -1.37560e+01
       H -2.58288e+00  1.13225e+01 -1.33478e+01
       O -3.92275e+00  2.20578e+00 -8.30934e-01
       H -4.05140e+00  6.62789e-01 -4.82410e-02
       H -4.39269e+00  2.37856e+00 -2.60372e+00
       O -8.25478e+00  9.50397e+00 -7.28639e-01
       H -8.23999e+00  7.77798e+00 -3.61680e-01
       H -8.26761e+00  9.74542e+00 -2.54452e+00
       O -4.47298e+00  2.62821e+00 -6.25690e+00
       H -6.26386e+00  3.61032e+00 -6.66023e+00
       H -2.77994e+00  3.47924e+00 -6.42622e+00
       O  8.22517e+00  9.96982e+00 -6.22032e+00
       H  6.44467e+00  1.09459e+01 -6.32740e+00
       H -7.19149e+00  1.11349e+01 -6.48626e+00
       O  8.15962e+00  5.22129e+00 -7.77037e+00
       H  8.51616e+00  4.98137e+00 -9.72533e+00
       H  8.57173e+00  7.17821e+00 -7.07797e+00
       O -4.67157e+00  1.25411e+01 -7.81020e+00
       H -4.53357e+00  1.23498e+01 -9.57785e+00
       H -4.98822e+00  1.46212e+01 -7.47789e+00
       O -8.21455e+00  4.79880e+00  6.59856e-01
       H  7.19846e+00  3.63289e+00  2.84489e-01
       H -6.77848e+00  3.51220e+00  6.60280e-01
       O -3.91818e+00  1.21103e+01  5.50845e-01
       H -5.49241e+00  1.08939e+01  2.54978e-01
       H -2.52683e+00  1.10397e+01  5.16038e-01
       O -4.05137e+00  2.07775e+00  1.29864e+01
       H -3.89421e+00  2.19124e-01  1.34322e+01
       H -4.70245e+00  2.39728e+00  1.14121e+01
       O -8.19036e+00  9.47461e+00  1.30168e+01
       H -8.39502e+00  7.87246e+00  1.38078e+01
       H -8.34805e+00  9.22042e+00  1.08012e+01
       O -4.51689e+00  2.60589e+00  7.66767e+00
       H -6.23862e+00  3.46950e+00  7.09753e+00
       H -2.75272e+00  3.62733e+00  7.28901e+00
       O  8.29512e+00  9.91864e+00  7.57993e+00
       H  6.63099e+00  1.07577e+01  7.13314e+00
       H -7.41645e+00  1.09877e+01  6.96253e+00
       O  8.17878e+00  5.19640e+00  6.05387e+00
       H  8.48958e+00  5.32863e+00  4.31478e+00
       H  8.34661e+00  6.89395e+00  6.81310e+00
       O -4.58305e+00  1.25961e+01  6.07175e+00
       H -4.06486e+00  1.29522e+01  4.35541e+00
       H -4.44187e+00  1.45997e+01  6.92413e+00
       O  3.21988e-01 -9.85779e+00 -1.32167e+01
       H -1.16823e+00 -1.10336e+01 -1.32236e+01
       H  1.54003e+00 -1.12524e+01 -1.36570e+01
       O  4.58863e+00 -2.47439e+00 -1.30915e+01
       H  3.08505e+00 -3.46799e+00 -1.33840e+01
       H  5.99435e+00 -3.64757e+00 -1.33319e+01
       O  4.62517e+00 -1.25884e+01 -8.31895e-01
       H  4.45487e+00 -1.46908e+01 -5.01848e-02
       H  4.25444e+00 -1.26562e+01 -2.63051e+00
       O  2.18680e-01 -5.24174e+00 -7.21709e-01
       H  1.00432e-01 -7.10877e+00  1.69717e-01
       H -2.67980e-02 -5.33297e+00 -2.54802e+00
       O  3.99673e+00 -1.20168e+01 -6.16198e+00
       H  2.20695e+00 -1.11812e+01 -6.94386e+00
       H  5.40658e+00 -1.13767e+01 -7.11041e+00
       O -3.41173e-01 -4.77865e+00 -6.25435e+00
       H -2.01587e+00 -3.81895e+00 -6.63251e+00
       H  9.65586e-01 -3.77246e+00 -6.48278e+00
       O -3.10873e-01 -9.60801e+00 -7.67329e+00
       H -9.26560e-02 -9.83226e+00 -9.51200e+00
       H -1.00675e-01 -7.57971e+00 -6.98494e+00
       O  3.88476e+00 -2.21097e+00 -7.66748e+00
       H  4.15460e+00 -2.43207e+00 -9.48391e+00
       H  3.63981e+00 -3.87041e-01 -7.20741e+00
       O  2.81790e-01 -9.98878e+00  7.28247e-01
       H -1.36015e+00 -1.11350e+01  7.74951e-02
       H  1.83405e+00 -1.08607e+01  4.74826e-01
       O  4.63804e+00 -2.52918e+00  6.73331e-01
       H  3.16927e+00 -3.86320e+00  7.79040e-01
       H  6.29854e+00 -3.65782e+00  3.97337e-01
       O  4.61825e+00 -1.25304e+01  1.31852e+01
       H  4.32238e+00 -1.47158e+01  1.34675e+01
       H  3.96495e+00 -1.25061e+01  1.12407e+01
       O  3.51681e-01 -5.15677e+00  1.31132e+01
       H -6.26580e-02 -7.08209e+00  1.35630e+01
       H -1.82844e-01 -5.29943e+00  1.12459e+01
       O  3.95527e+00 -1.22079e+01  7.47867e+00
       H  2.32005e+00 -1.09176e+01  7.58120e+00
       H  5.36774e+00 -1.09340e+01  7.17268e+00
       O -2.38926e-01 -4.80220e+00  7.56927e+00
       H -1.80880e+00 -3.77300e+00  6.98898e+00
       H  1.25710e+00 -3.71841e+00  6.91627e+00
       O -2.67269e-01 -9.46952e+00  6.04598e+00
       H -3.65069e-01 -9.45181e+00  4.29092e+00
       H -4.54294e-01 -7.51023e+00  6.53713e+00
       O  4.03100e+00 -2.20078e+00  6.07783e+00
       H  4.41632e+00 -2.04290e+00  4.21330e+00
       H  3.93269e+00 -7.32284e-01  6.73394e+00
       O  2.21893e-01  4.73836e+00 -1.31587e+01
       H -1.17662e+00  3.93600e+00 -1.41077e+01
       H  1.70445e+00  3.84860e+00 -1.38104e+01
       O  4.52142e+00  1.20575e+01 -1.31787e+01
       H  3.35700e+00  1.08342e+01 -1.39340e+01
       H  6.04844e+00  1.11716e+01 -1.33911e+01
       O  4.41424e+00  2.23476e+00 -7.96457e-01
       H  4.82729e+00  7.52976e-01  1.67325e-01
       H  4.16649e+00  2.05858e+00 -2.57788e+00
       O  2.53731e-01  9.48267e+00 -7.14850e-01
       H  5.27104e-01  7.59882e+00 -3.26771e-01
       H  2.62205e-01  9.58880e+00 -2.57126e+00
       O  3.97271e+00  2.55257e+00 -6.14481e+00
       H  2.65716e+00  3.74522e+00 -6.26770e+00
       H  5.48078e+00  3.87533e+00 -6.48941e+00
       O -1.56121e-01  9.96246e+00 -6.24287e+00
       H -1.79228e+00  1.08807e+01 -6.43595e+00
       H  1.22739e+00  1.13529e+01 -6.68309e+00
       O -3.76720e-01  5.16618e+00 -7.67914e+00
       H -1.69752e-01  5.16653e+00 -9.55531e+00
       H -7.43305e-02  6.93507e+00 -6.87302e+00
       O  3.97331e+00  1.25579e+01 -7.70854e+00
       H  4.19189e+00  1.29801e+01 -9.33795e+00
       H  3.93051e+00  1.42667e+01 -6.96942e+00
       O  2.76090e-01  4.75145e+00  6.25804e-01
       H -9.58250e-01  3.35403e+00  3.03689e-01
       H  1.66434e+00  3.64360e+00  4.61314e-01
       O  4.45003e+00  1.20848e+01  6.38644e-01
       H  2.76868e+00  1.11260e+01  1.83645e-01
       H  6.26260e+00  1.14522e+01  4.33095e-01
       O  4.52302e+00  2.28973e+00  1.30003e+01
       H  4.53251e+00  2.29723e-01  1.35589e+01
       H  4.60337e+00  1.98124e+00  1.12105e+01
       O  3.48409e-01  9.44929e+00  1.29285e+01
       H  4.11601e-01  7.68524e+00  1.36861e+01
       H  2.31678e-01  9.40305e+00  1.10229e+01
       O  3.99418e+00  2.51002e+00  7.62782e+00
       H  2.28024e+00  3.25912e+00  7.02270e+00
       H  5.42123e+00  3.51666e+00  6.92749e+00
       O -2.32712e-01  9.80947e+00  7.74484e+00
       H -1.78118e+00  1.08196e+01  7.41397e+00
       H  1.14762e+00  1.10893e+01  7.24797e+00
       O -3.10141e-01  5.18910e+00  6.09688e+00
       H -1.60876e-01  5.04847e+00  4.05564e+00
       H -1.74361e-01  7.01976e+00  6.68449e+00
       O  4.10161e+00  1.25459e+01  6.12212e+00
       H  4.02082e+00  1.29491e+01  4.25134e+00
       H  3.54389e+00  1.44613e+01  6.68769e+00
192
# CELL(abcABC):   16.99620    29.43815    27.67315    90.00000    90.00000    90.00000  Step:          30  Bead:       8 positions{atomic_unit}  cell{atomic_unit}
       O -8.18852e+00 -1.00336e+01 -1.30150e+01
       H  7.03365e+00 -1.09565e+01 -1.36515e+01
       H -6.65950e+00 -1.10411e+01 -1.38311e+01
       O -3.99266e+00 -2.62516e+00 -1.31635e+01
       H -5.53929e+00 -3.43937e+00 -1.36170e+01
       H -2.32621e+00 -3.50327e+00 -1.37634e+01
       O -4.05972e+00 -1.25879e+01 -8.60897e-01
       H -3.79215e+00 -1.42180e+01 -1.23750e-02
       H -4.41172e+00 -1.26890e+01 -2.62428e+00
       O -8.28728e+00 -5.05184e+00 -7.28239e-01
       H -8.09091e+00 -6.99668e+00 -4.24521e-01
       H -8.81087e+00 -5.06015e+00 -2.61268e+00
       O -4.40620e+00 -1.22261e+01 -6.21581e+00
       H -5.73599e+00 -1.12849e+01 -6.47842e+00
       H -2.85240e+00 -1.14637e+01 -6.79583e+00
       O  8.28968e+00 -4.73429e+00 -6.33936e+00
       H  7.04211e+00 -3.34535e+00 -6.85330e+00
       H -6.85926e+00 -3.78382e+00 -6.48554e+00
       O  8.17400e+00 -9.54541e+00 -7.60927e+00
       H  8.15036e+00 -9.18150e+00 -9.50661e+00
       H  8.06018e+00 -7.73122e+00 -7.33126e+00
       O -4.56917e+00 -2.15346e+00 -7.62711e+00
       H -3.94415e+00 -2.06780e+00 -9.47428e+00
       H -5.06180e+00 -3.66144e-01 -7.10396e+00
       O -8.39244e+00 -9.82286e+00  6.33130e-01
       H  7.40580e+00 -1.09815e+01  1.67884e-01
       H -6.62837e+00 -1.10597e+01  1.45963e-01
       O -3.93344e+00 -2.61226e+00  7.99057e-01
       H -5.55116e+00 -3.81826e+00  2.60983e-01
       H -2.17081e+00 -3.95241e+00  3.78086e-01
       O -3.91408e+00 -1.24884e+01  1.30004e+01
       H -4.04814e+00 -1.43208e+01  1.34858e+01
       H -4.09234e+00 -1.26643e+01  1.11240e+01
       O -8.15655e+00 -5.16375e+00  1.30423e+01
       H -8.11447e+00 -6.99959e+00  1.32822e+01