192
# CELL(abcABC):   16.99620    29.43815    27.67315    90.00000    90.00000    90.00000  Step:           0  Bead:      14 velocities{atomic_unit}  cell{atomic_unit}
       O -9.34946e-04 -7.63826e-04  9.54824e-04
       H -9.05499e-04  2.57654e-04 -7.08022e-03
       H -2.39052e-03  1.30010e-03  6.77981e-03
       O  9.95456e-04 -1.21880e-03  1.33424e-04
       H -7.44469e-04  2.00790e-03  1.22109e-03
       H  2.33142e-03 -3.40544e-03 -1.65318e-04
       O -1.15634e-03  5.00762e-05 -2.74271e-04
       H -1.94440e-03  5.68405e-03 -2.77983e-03
       H -4.43298e-03 -4.92982e-03 -4.33813e-03
       O  2.97345e-04  8.57758e-04  1.40321e-04
       H -4.41000e-03  2.13595e-03 -2.21226e-03
       H  3.79411e-03  2.91839e-04 -4.10277e-04
       O  1.68569e-03 -6.72668e-04  1.04848e-03
       H  3.99733e-03  2.37463e-03 -4.00501e-04
       H  1.05982e-03  4.51108e-03 -2.43695e-03
       O  5.75915e-04  3.52578e-04 -1.49767e-03
       H  5.72635e-03 -1.28961e-03  1.96418e-03
       H  3.33520e-03  3.23668e-03 -3.84429e-03
       O  1.63257e-04 -5.66090e-04  4.67598e-04
       H -2.14423e-03  1.46755e-03  4.55489e-03
       H -3.38419e-05  7.82584e-03  4.60588e-03
       O -5.69056e-04 -5.36653e-04  1.21862e-03
       H  3.52457e-03 -3.95081e-03 -1.75106e-03
       H  1.54305e-03 -3.22814e-03 -6.38574e-03
       O  9.62244e-04 -1.66627e-03  4.63462e-04
       H -2.32429e-03  3.09452e-03  7.35410e-03
       H  8.83257e-03 -4.26482e-03 -6.26817e-03
       O -1.78905e-03 -1.35407e-03 -1.96391e-04
       H  4.64867e-03 -3.23310e-03 -1.34008e-03
       H  6.44366e-03  1.66687e-03 -2.24063e-03
       O  1.37576e-03 -7.97323e-04 -7.07176e-04
       H -2.61776e-04 -2.14259e-03 -1.65773e-03
       H  8.22234e-04  3.68587e-03 -7.05035e-03
       O  7.54487e-04 -9.87646e-04  7.42252e-04
       H  4.77383e-04  6.18795e-03  3.80332e-03
       H  2.69231e-03  2.73930e-03 -4.57430e-03
       O  6.73475e-04  1.02697e-03 -1.91863e-03
       H -2.12464e-03  5.18578e-03  3.71260e-04
       H  4.73157e-03 -1.11292e-03  3.54649e-03
       O -5.15255e-04 -5.68619e-04  1.52811e-03
       H  9.70141e-04  1.18822e-02 -2.79426e-03
       H  2.67424e-03  8.98163e-03 -1.34106e-03
       O -4.50228e-04 -1.06138e-03  9.81175e-04
       H  7.58543e-05  1.11894e-04  2.70557e-03
       H -4.57270e-03 -5.10160e-03 -1.90741e-03
       O -1.41950e-03  1.91825e-04 -1.07470e-03
       H  5.55990e-03 -2.39074e-03 -4.44170e-03
       H -7.86466e-04  1.59187e-03 -4.05584e-03
       O -8.94965e-04 -1.64839e-04  4.03019e-04
       H  5.29903e-03 -2.20720e-03  9.79933e-04
       H -4.63416e-03  5.53361e-03  1.86665e-03
       O  5.41341e-04  2.69150e-04 -8.26771e-04
       H -9.77725e-03  1.94649e-03  5.65840e-03
       H -1.95176e-03  6.48279e-03  4.36717e-03
       O -2.11878e-04 -9.69453e-04 -2.02530e-03
       H -2.00683e-03  1.18749e-03  5.26331e-04
       H  9.05395e-04 -3.38917e-04  6.22754e-03
       O  2.80476e-04  2.60929e-04 -1.36236e-03
       H -1.19711e-04 -4.55026e-03  3.17466e-03
       H -3.89801e-04 -1.14875e-03 -1.62002e-03
       O  8.35769e-04 -4.29079e-04  9.10896e-04
       H -2.62237e-03  1.87283e-03  4.16051e-03
       H  3.66298e-03  6.06056e-04 -4.21989e-03
       O  7.96913e-05 -6.54410e-04 -3.77535e-05
       H  2.91299e-03 -7.07036e-03  2.97354e-03
       H -2.15000e-03 -3.12586e-03  2.84863e-03
       O -7.32666e-04  1.33078e-03  3.15096e-04
       H -1.75283e-04 -5.84511e-03 -1.44651e-03
       H -1.29259e-03  2.84964e-03  5.38782e-04
       O -1.88153e-05 -2.68697e-05  1.44215e-03
       H -2.03874e-03  8.90745e-04 -4.00199e-03
       H -6.99236e-03  2.76565e-03 -3.16310e-03
       O -3.52675e-04 -2.09830e-04  6.63233e-04
       H  3.92009e-04  2.01971e-03 -2.31354e-03
       H -9.52828e-04  2.47569e-03  4.05478e-03
       O  1.01507e-03 -5.01103e-05 -3.28566e-04
       H -6.75879e-04 -4.93470e-03  7.53851e-03
       H -2.62951e-04  8.88253e-03  3.57017e-03
       O -2.33878e-04  8.86221e-05  3.45923e-04
       H  6.17923e-04 -2.09153e-04 -1.02087e-02
       H  2.03980e-03  1.44712e-03 -9.67465e-04
       O  2.21902e-04 -3.87616e-04 -6.21237e-04
       H -3.13413e-03 -2.15567e-04 -1.52846e-03
       H  1.05854e-03  1.83605e-03 -2.00416e-03
       O  1.16215e-03  1.17957e-03  1.09630e-03
       H -1.66221e-03  6.44117e-03  4.79308e-03
       H -5.35622e-03  1.26845e-03 -4.95879e-04
       O  5.91286e-04  7.60381e-04  5.25249e-04
       H  6.40188e-03  1.04376e-03  2.59942e-03
       H -1.83460e-03 -5.37004e-03  6.28249e-03
       O  4.09164e-04  8.88086e-06  4.03712e-05
       H -3.21754e-03  3.12604e-03  3.98183e-03
       H  1.70909e-04  1.71846e-03 -2.51441e-03
       O  1.12309e-03  1.54896e-04 -9.68017e-04
       H  2.73050e-03  3.68437e-03  2.40804e-04
       H  3.47179e-03  3.34929e-03  3.31760e-03
       O  6.44997e-04  6.25286e-04 -1.01722e-03
       H  1.40701e-03  4.44828e-03 -3.74860e-03
       H -4.74974e-04  3.46479e-03 -1.49590e-03
       O  6.74942e-04 -3.40750e-04  4.40621e-04
       H -3.25786e-03  1.06407e-03  1.19692e-03
       H  3.20227e-03  2.26519e-04 -4.26158e-03
       O  3.18649e-04 -1.92353e-03 -7.28985e-04
       H  5.19313e-03  2.41442e-03  6.74839e-04
       H -3.26487e-03  3.33290e-03  2.76395e-03
       O  4.37140e-05  1.00490e-03 -4.80035e-04
       H -1.47117e-03 -6.12283e-03 -2.07220e-04
       H -2.78465e-03  1.93693e-03  7.51894e-04
       O  4.61046e-04  8.13632e-04  1.06304e-04
       H -3.82277e-04  3.57977e-03  2.62803e-04
       H  1.16180e-03  4.05114e-03  1.81349e-03
       O  6.40645e-04 -6.25596e-06 -1.00136e-03
       H  1.39615e-03  1.78888e-03  2.25917e-04
       H  2.00328e-03  1.43002e-03 -7.76766e-03
       O  1.38333e-03 -8.44132e-04  1.31062e-03
       H  1.04032e-03  1.60589e-03 -3.93499e-03
       H -4.11262e-03  8.32232e-04 -3.28481e-03
       O -1.02541e-03  3.13409e-04  3.91865e-04
       H -3.64298e-04  1.39323e-03  6.60423e-03
       H -2.33239e-03 -5.16552e-03 -2.14431e-03
       O  5.65516e-04 -6.79723e-04  1.39075e-03
       H  1.68913e-03  7.67685e-04  2.28816e-04
       H  2.15064e-03 -1.84304e-03  9.59239e-03
       O  9.30969e-04  2.15016e-04 -3.75900e-04
       H  1.33722e-03 -2.86528e-03  4.58656e-03
       H  7.16493e-03 -9.42117e-03  1.88073e-03
       O  8.60134e-04  3.27271e-04  2.00105e-04
       H  1.40735e-03 -4.30258e-03  4.30741e-03
       H -6.77109e-03 -3.39197e-03 -5.04593e-03
       O -6.83118e-04  9.24795e-05 -1.45630e-03
       H -1.29216e-03  2.38724e-03 -1.99878e-03
       H  1.03349e-03  2.20006e-03 -3.49541e-03
       O  7.46519e-04 -7.26900e-04 -1.00722e-03
       H  9.26095e-04  2.44607e-04  9.77521e-04
       H -2.76239e-03  3.38204e-03  7.46949e-04
       O  5.85527e-04  5.61714e-04 -1.57863e-03
       H -8.15568e-03  2.93817e-04 -2.71770e-03
       H  2.13839e-03  4.65846e-03 -3.03047e-03
       O  1.78672e-04 -8.54105e-04 -1.28218e-03
       H  7.72741e-03  2.17468e-03  1.41449e-03
       H -2.38889e-03  4.58330e-03 -4.31863e-04
       O  1.33624e-03 -2.13387e-03  3.60566e-04
       H  2.88458e-03  3.67745e-04  3.11170e-04
       H  1.27649e-03 -8.43725e-04  3.20144e-03
       O -1.12045e-03 -1.76374e-03  6.84834e-04
       H -1.24260e-03 -5.01410e-03 -1.11412e-03
       H -1.49286e-03 -2.18976e-03 -4.09008e-03
       O  1.33354e-03  4.44325e-05  4.93213e-04
       H -8.45785e-04 -8.13848e-03 -1.17985e-03
       H -1.40190e-03 -1.64072e-03 -1.52244e-03
       O  5.39054e-04  1.96467e-03 -1.35849e-03
       H -2.72117e-03  2.33150e-03  5.05435e-03
       H  5.11073e-03  1.64636e-03  2.47929e-03
       O  3.65860e-04  1.26943e-03 -2.41332e-04
       H  3.11757e-03  8.16738e-05 -5.62234e-03
       H -2.86932e-03  5.19027e-03 -8.48802e-04
       O -7.24867e-04  6.78496e-04  6.83950e-04
       H -9.77002e-04  2.52301e-03 -6.53327e-04
       H  3.14971e-03  9.09750e-04 -3.31536e-03
       O  1.07192e-03  2.19793e-03  7.20097e-04
       H -1.78952e-03 -3.69966e-03  1.06749e-04
       H  9.48846e-03  2.46864e-03 -4.31719e-03
       O  9.96761e-04 -1.04346e-05  2.67984e-04
       H  1.14844e-03 -2.85859e-03 -2.80548e-03
       H  2.71939e-03  1.37675e-03  2.02243e-03
       O -1.45926e-03  3.22751e-04  9.78222e-04
       H  4.67832e-04 -2.07111e-03 -1.24132e-03
       H  3.73548e-03 -3.19040e-03 -3.92967e-03
       O -2.15126e-05  1.51308e-03 -1.00592e-04
       H -6.98350e-04  1.10060e-03 -2.48745e-03
       H -4.25545e-03 -5.35914e-03  4.23933e-03
       O -1.51695e-03  1.38867e-03  6.71964e-04
       H  3.44389e-03 -3.33272e-03 -1.47772e-03
       H -2.64141e-03  1.00757e-03  8.65334e-03
       O  8.78049e-04  4.12562e-04 -1.14567e-03
       H  1.88016e-03 -4.61860e-03  1.86142e-03
       H  4.10728e-03  1.58022e-03 -2.76168e-03
       O -1.97622e-03  1.66798e-03  4.14037e-04
       H -2.97878e-03  4.39623e-03  9.74516e-06
       H  3.15736e-03  4.62075e-03 -3.33724e-03
       O -6.11304e-04  5.60020e-04  1.48589e-04
       H  1.94474e-03 -8.08946e-03 -3.31969e-03
       H -4.76576e-03 -7.02098e-03 -1.77819e-03
       O  2.52044e-04 -1.34857e-03 -1.20243e-03
       H -1.33035e-03 -5.66418e-03  6.44537e-04
       H -6.19167e-03 -2.64310e-03 -2.45276e-03
       O -8.85805e-05 -1.63823e-03 -2.27757e-04
       H -3.62979e-03 -1.21638e-03  7.76485e-03
       H -1.03834e-02  3.85384e-03  3.64532e-03
       O  7.84701e-04 -4.45623e-04 -8.05731e-04
       H -8.48842e-04  5.66173e-03 -1.14259e-03
       H  1.18245e-04  1.71461e-05  1.49488e-03
192
# CELL(abcABC):   16.99620    29.43815    27.67315    90.00000    90.00000    90.00000  Step:          10  Bead:      14 velocities{atomic_unit}  cell{atomic_unit}
       O -1.15337e-03 -7.78320e-04  1.25926e-03
       H -9.58492e-03  4.42556e-03 -4.19595e-03
       H  2.92309e-03 -4.84036e-03 -8.58931e-03
       O -1.09932e-03 -1.43369e-03  8.12901e-04
       H  3.67902e-03 -8.83720e-03  1.67535e-03
       H -7.08649e-04  1.07764e-03 -2.86632e-03
       O  8.60806e-04 -1.47388e-04 -7.56408e-05
       H  5.53043e-03  2.26405e-03  3.52518e-03
       H -5.20964e-03 -2.51440e-03 -1.26144e-04
       O  1.19357e-03  8.50728e-04 -8.78915e-04
       H  1.25205e-03 -4.75232e-04 -3.24905e-03
       H -1.46167e-03  2.25892e-03  7.68242e-04
       O  1.36077e-04 -1.80939e-03 -1.06999e-03
       H -2.55677e-03 -6.44053e-04  2.90980e-03
       H  5.27604e-03 -5.76488e-03 -3.66740e-03
       O -8.23734e-04 -3.46225e-04 -1.40794e-04
       H -3.34314e-03 -1.74930e-03 -4.92601e-03
       H -9.64984e-04 -4.99560e-03 -4.48362e-05
       O -5.30120e-04  8.55662e-04  1.06856e-03
       H  1.91911e-03 -8.49318e-04 -2.36361e-03
       H -1.54435e-03  5.59603e-03  4.44939e-03
       O -1.16489e-03  1.67146e-04  1.21974e-04
       H  4.81205e-04  2.01022e-03 -4.38339e-03
       H -1.81630e-03  1.01004e-03 -4.57869e-04
       O -9.57263e-04 -3.26725e-04 -1.54341e-03
       H  2.68573e-04  3.55308e-04  3.98125e-05
       H  1.36301e-03  2.09976e-03 -1.63135e-03
       O  6.15095e-04 -5.50961e-04  1.03476e-03
       H -1.08593e-03  8.73567e-03  3.05368e-03
       H -2.62947e-03  1.73269e-03 -1.57892e-03
       O -1.73068e-03  4.72334e-04  2.33708e-04
       H  5.49489e-03  1.58310e-03  2.78453e-03
       H  7.52848e-03 -1.69394e-03  2.07387e-03
       O  1.15156e-03  3.67566e-04 -1.93727e-03
       H -2.62053e-03 -2.19356e-03  5.37614e-03
       H  9.20935e-04  2.33420e-03  5.48024e-03
       O  1.11643e-03  1.19630e-03  7.10172e-05
       H -1.01601e-03  3.42651e-03  3.31561e-04
       H -7.22590e-03  4.90925e-03 -1.45396e-03
       O -6.29225e-05  3.92165e-04  6.78123e-04
       H  2.42367e-04 -4.47127e-03 -7.34763e-04
       H -1.80381e-03  1.62448e-03 -3.52664e-03
       O -2.98499e-04  5.84341e-04  1.10982e-03
       H  4.19598e-03  1.49462e-03  9.71814e-04
       H -7.79775e-04 -1.30767e-03 -2.33112e-03
       O  1.65438e-03  1.62225e-03 -1.21117e-03
       H  2.56593e-03  1.43939e-03 -2.84685e-03
       H  5.35149e-03 -2.51289e-03  8.39863e-04
       O -6.85357e-04 -1.49921e-03  1.61419e-04
       H  4.94901e-03 -1.23504e-03  3.37878e-03
       H  2.51421e-03 -3.19496e-03  8.49188e-04
       O -3.41414e-04 -1.18301e-03 -1.28370e-03
       H  5.16001e-03  1.80018e-03 -2.92822e-03
       H  3.42813e-03 -2.70365e-03 -1.77389e-03
       O  1.14314e-05 -4.37071e-04 -1.30895e-03
       H -1.12169e-03  2.28311e-04 -2.19167e-03
       H  1.14137e-04 -3.31353e-03  1.57122e-03
       O -1.07616e-04 -2.96556e-06  6.07141e-04
       H  3.16754e-03  1.79484e-03 -1.50089e-03
       H -5.08605e-03  9.01554e-04 -8.19679e-04
       O  1.53285e-03  5.70535e-04  2.49457e-05
       H -8.13354e-03 -3.07224e-03  6.14698e-03
       H -1.03244e-02 -4.32736e-04 -3.64986e-03
       O  6.50250e-04  3.58976e-04  5.82805e-05
       H -3.48858e-04 -4.92867e-03 -2.36254e-03
       H  1.04096e-03 -4.97606e-03 -9.55693e-04
       O  3.43919e-04 -2.78818e-04  9.94868e-04
       H -3.24469e-03 -9.60153e-05  3.23441e-03
       H -1.26283e-03  5.26514e-03 -5.31961e-04
       O -7.07769e-05 -1.67012e-03  5.29160e-04
       H -3.45155e-03 -7.03717e-03 -3.71521e-03
       H  3.03488e-03  1.10504e-03  2.69396e-03
       O  5.88025e-04  4.39913e-04 -9.40870e-04
       H  7.66675e-03 -4.12069e-04  6.43039e-03
       H -9.35380e-04 -3.52771e-03  1.27949e-03
       O -4.18249e-05  7.35513e-04 -3.24233e-05
       H -4.95977e-04 -3.59815e-04  1.74542e-03
       H -2.73610e-04 -3.79314e-03  2.38778e-03
       O  1.16092e-03 -6.30727e-04  8.80915e-04
       H -2.07226e-03  3.21549e-03  3.09491e-03
       H -1.78666e-03  5.45926e-04 -9.83853e-04
       O  3.53266e-04  7.33275e-04 -1.19464e-04
       H  3.56544e-05 -1.08583e-03 -5.39612e-03
       H -5.81781e-03 -3.08884e-03  1.97605e-04
       O  4.83358e-04  3.88429e-04  7.31650e-04
       H  5.56812e-04 -2.04061e-03 -4.43341e-03
       H  7.94314e-03 -3.95153e-03 -2.02895e-03
       O  1.88272e-03  1.00676e-03 -3.60397e-04
       H  5.55420e-04 -2.95308e-03 -3.71416e-03
       H  1.12102e-03 -5.44978e-04  3.39931e-03
       O -8.23835e-04 -9.59814e-04  3.34137e-04
       H -2.19896e-03  2.39773e-03 -6.57638e-05
       H -1.22267e-03  6.46563e-03  1.52060e-03
       O  6.55887e-04 -8.40451e-04  8.11813e-04
       H -3.07871e-03 -1.40024e-03  2.45063e-03
       H  7.51214e-04  3.18333e-03  3.45207e-03
       O  2.66148e-04 -7.28258e-04  4.80803e-04
       H -4.19788e-03  2.52777e-03  3.27908e-04
       H -8.25439e-03 -7.23241e-03 -1.01725e-03
       O  1.11716e-03 -5.96132e-04  6.82410e-04
       H  8.16098e-04  3.98760e-03  2.11845e-04
       H -3.02136e-03  1.25955e-03  1.40495e-03
       O -6.31605e-04 -1.33575e-03 -1.05335e-03
       H -1.18659e-03 -3.86235e-03 -2.37265e-03
       H -1.59272e-03 -4.68543e-03  5.12239e-03
       O -9.20480e-04  4.41039e-04  1.36959e-03
       H -4.97243e-03  1.42211e-03 -4.39393e-03
       H -6.57830e-04  1.30631e-03  2.75227e-03
       O  3.21448e-04 -6.21007e-04  1.37442e-03
       H  4.08707e-03  8.32621e-04  2.87431e-03
       H  3.13952e-03  5.48979e-03  1.93435e-03
       O  5.20328e-04 -5.23419e-04 -3.05552e-04
       H  6.13511e-04  9.36211e-04  2.82399e-03
       H -1.11663e-04 -5.96618e-03 -4.11364e-03
       O -7.97847e-05 -8.35171e-04  7.88637e-04
       H -5.76542e-04  3.62791e-05 -1.11034e-03
       H  2.26721e-03  1.96758e-03 -2.78294e-04
       O  1.54269e-03 -9.07120e-04  2.72662e-04
       H -2.84610e-03  5.63264e-03  3.61046e-03
       H -4.60979e-03 -1.29808e-03 -2.19996e-04
       O -3.86146e-04 -5.64703e-04 -4.81942e-05
       H -6.59827e-04 -5.78349e-03 -1.37169e-03
       H  1.68294e-03 -4.34302e-03  2.14544e-03
       O  8.41736e-04  9.36035e-04  1.43055e-04
       H  8.17850e-04  3.65684e-03  9.43830e-04
       H -2.63369e-03 -9.55312e-04 -1.92605e-03
       O  1.00285e-03  1.31780e-03  4.57040e-04
       H  4.38741e-03  3.04654e-03 -4.13692e-04
       H -6.29400e-03  1.40741e-03  1.17562e-03
       O  7.25548e-04 -1.49243e-03 -4.82270e-05
       H  1.82606e-03 -4.96281e-03 -4.86813e-03
       H  4.96360e-03  4.70319e-04  2.11565e-03
       O  3.96496e-04  4.06543e-04  1.48793e-04
       H -2.23312e-03 -7.06980e-03  1.38501e-03
       H  1.30608e-03 -5.39041e-06 -3.71831e-03
       O  1.09988e-03  1.08766e-03 -1.93877e-04
       H -1.00548e-03 -8.11138e-04 -2.01880e-03
       H  6.52164e-04  3.39882e-03  6.42965e-03
       O -6.27179e-04 -1.68404e-03  1.96227e-04
       H  2.84138e-03  4.18721e-03 -9.00279e-03
       H -1.97962e-03 -1.66390e-03  6.82925e-03
       O  6.55740e-04 -4.80559e-04 -2.03513e-03
       H -6.38487e-04 -1.93867e-03 -2.81964e-03
       H  4.52862e-03  2.30230e-03 -1.84871e-03
       O -9.63417e-05  1.18948e-03  2.14826e-03
       H -2.09167e-05  4.29849e-03 -1.94825e-03
       H -1.08822e-03 -6.58044e-04 -2.66961e-03
       O  6.69144e-04  2.66793e-04  1.92215e-04
       H  5.21828e-03 -4.50578e-03  7.54635e-04
       H  2.43005e-03  4.46720e-03 -4.00042e-04
       O -8.21037e-04  1.32749e-03  4.80700e-04
       H  3.76336e-05  6.08242e-03 -3.67406e-03
       H -3.27292e-03  1.52040e-04  2.98156e-03
       O -5.00166e-04 -1.81779e-04 -7.09432e-04
       H -1.59443e-03  4.35493e-03  6.28947e-03
       H  3.41900e-03 -6.23381e-04 -2.30155e-03
       O -4.96408e-04 -7.88546e-05 -5.07635e-04
       H  4.16436e-03 -5.68425e-04  3.90651e-03
       H  1.14148e-03 -2.90852e-04  1.24824e-03
       O -4.53001e-05  8.76797e-04  7.74046e-05
       H -9.84855e-05  6.12563e-04 -4.25656e-03
       H  1.08411e-03  1.73352e-03  2.70572e-03
       O -2.87282e-05 -4.75073e-04 -1.34121e-03
       H -1.48605e-03  4.11748e-03  8.39972e-03
       H  7.42541e-04 -2.33213e-03  9.52336e-06
       O -1.16641e-03 -4.76143e-04  3.92569e-05
       H -1.67628e-03 -5.06301e-04 -2.53800e-03
       H  3.08776e-03  5.52208e-03 -4.41459e-04
       O  1.12614e-04 -2.08982e-04  4.51304e-04
       H  1.75207e-03  5.57384e-04 -6.51692e-04
       H -1.47597e-03 -1.05016e-04  1.58783e-03
       O -5.03127e-04 -4.37758e-04 -4.08555e-04
       H  1.17182e-03  2.54998e-03  4.27079e-05
       H -2.76121e-03  2.33956e-03  1.66995e-03
       O -1.37639e-03  1.72986e-04  3.89374e-04
       H -2.27966e-03 -6.41196e-03  3.11499e-03
       H  2.23448e-03 -5.55845e-03 -1.68748e-03
       O -1.65377e-04 -7.73353e-05  2.69534e-04
       H -1.65397e-03  7.32968e-04 -2.46668e-03
       H  3.11539e-03 -1.29239e-03 -1.61267e-03
       O  1.06868e-03 -8.44860e-04  1.08124e-04
       H -2.06479e-04 -3.45775e-03  2.50779e-03
       H  6.35440e-04  1.65046e-03  3.67441e-03
       O -1.63321e-03  4.70577e-04 -3.60919e-04
       H -1.72479e-03 -4.28085e-03  1.81422e-03
       H  4.45809e-03  9.36446e-04 -4.53201e-03
       O  3.79817e-05 -4.76563e-04  7.37740e-05
       H -1.64586e-03 -1.97039e-03  4.24909e-04
       H -3.35461e-03 -4.05488e-03 -4.07523e-03
       O -1.87018e-03 -6.22313e-04 -7.90576e-04
       H  1.73045e-03  5.15482e-04  1.86354e-03
       H  6.53941e-03  8.30302e-04  5.05086e-03
192
# CELL(abcABC):   16.99620    29.43815    27.67315    90.00000    90.00000    90.00000  Step:          20  Bead:      14 velocities{atomic_unit}  cell{atomic_unit}
       O -7.73900e-04 -4.66245e-04 -1.34543e-03
       H  1.97295e-03 -8.61278e-04 -5.46858e-04
       H -2.88928e-03 -3.48450e-03  4.62486e-03
       O  3.83924e-04 -8.14793e-04  1.16917e-04
       H -8.41763e-04  8.15253e-04  2.97208e-03
       H  4.72553e-03 -4.12058e-04  2.41579e-04
       O  1.63473e-03 -4.85197e-05  3.10681e-04
       H -6.19018e-03  2.00670e-03  2.05707e-03
       H  1.07820e-03  2.84168e-03  1.57487e-03
       O  4.62159e-04 -2.36960e-03  6.37566e-04
       H -4.47399e-03  6.15283e-03  1.93485e-03
       H -9.67215e-04  1.56066e-03  5.07090e-03
       O -4.66918e-04  4.52227e-04 -4.26163e-04
       H -5.28016e-03 -2.86043e-03 -3.10154e-04
       H -6.85177e-03 -2.06354e-03  4.00917e-03
       O  6.05144e-04 -3.52864e-04 -5.63899e-04
       H  1.56626e-03 -5.20339e-03 -4.66136e-04
       H  1.75951e-03  6.32368e-03 -9.68564e-05
       O -2.45307e-04  9.89808e-04  2.06049e-03
       H  5.78506e-03 -3.10236e-03  6.98585e-03
       H -2.81309e-03 -3.51054e-03 -3.78291e-03
       O  6.01504e-04  7.65897e-04  8.55418e-04
       H  2.00282e-03  2.07440e-03 -4.68894e-03
       H  2.35130e-03  1.02355e-03  2.26032e-03
       O  9.87117e-04 -6.62697e-04  3.51777e-06
       H -4.23912e-04 -4.64975e-03 -2.29059e-03
       H  3.85768e-03 -2.81825e-03  9.22239e-04
       O  1.22125e-03 -8.39929e-04  1.19498e-04
       H  2.91549e-03 -1.17646e-03  7.03568e-03
       H -1.07809e-03  4.47417e-03  2.32433e-03
       O  2.29150e-04  1.44285e-03  9.74655e-04
       H -6.17047e-04  5.26817e-05 -1.96625e-03
       H -7.83493e-03  3.30741e-03 -3.37728e-03
       O  1.09294e-04  1.85470e-03 -2.79265e-04
       H  4.92079e-03 -8.80515e-04  4.77847e-03
       H  4.12092e-03 -3.48636e-03 -3.86142e-04
       O -1.72765e-03 -6.49872e-04  1.08540e-03
       H  6.12628e-03 -4.66242e-03  1.28728e-03
       H  8.22630e-04 -6.77409e-03 -4.10438e-03
       O  1.91092e-03  6.36639e-04 -1.25078e-03
       H -1.44629e-03 -5.15279e-03  1.43317e-03
       H -2.58370e-03 -1.48755e-03 -2.95022e-03
       O -8.70255e-04 -2.47651e-04 -3.07499e-04
       H -2.20738e-03  4.85061e-03  3.66772e-03
       H -3.67239e-04  1.30735e-04  5.93861e-03
       O  3.98100e-04  1.09865e-03 -9.01343e-04
       H -1.93845e-03  3.22615e-03  1.76134e-03
       H  9.58100e-03 -1.03515e-03 -4.09874e-03
       O  1.71489e-03 -3.60421e-04 -3.36136e-04
       H -2.92863e-03  4.56229e-05 -1.70263e-03
       H -1.87490e-03 -3.25987e-04 -3.48469e-03
       O  2.87222e-04  1.04185e-03  1.51313e-04
       H -7.12753e-03  5.92325e-03 -4.71764e-03
       H  2.89789e-03  3.63475e-03 -2.71103e-04
       O -4.34666e-04 -1.82854e-04 -1.56144e-03
       H -8.80924e-03 -1.35973e-03 -4.60149e-03
       H -1.39558e-03  5.57635e-04 -3.50340e-03
       O  2.05796e-03 -8.15240e-04 -1.40038e-03
       H  4.25167e-03 -9.24688e-05 -4.66007e-03
       H -1.27033e-03  1.43218e-03  1.67827e-04
       O  4.41781e-04 -1.41711e-04  1.67357e-04
       H  3.78872e-03 -5.23604e-03 -9.03993e-06
       H -4.34595e-03  2.89655e-03 -4.16347e-04
       O -1.21122e-03  9.57422e-04  4.93641e-04
       H  5.66785e-03  1.35811e-03  7.38439e-03
       H  1.53217e-03 -2.70357e-03 -1.73165e-03
       O -2.57531e-04  3.96726e-04 -2.63185e-04
       H -1.34858e-03 -6.85948e-04 -2.83323e-04
       H  2.89355e-05 -5.67168e-03  3.05188e-04
       O -1.22205e-03 -3.43890e-04 -5.84202e-04
       H  6.16550e-03  2.24654e-03  4.30272e-03
       H  2.29086e-03 -1.27853e-03 -3.51188e-03
       O -9.71047e-04  1.66955e-03 -5.08642e-04
       H  5.73253e-03  9.47111e-04  1.42322e-03
       H  3.46826e-03 -2.60112e-03  2.17904e-03
       O  4.61271e-04  5.28730e-04 -3.21196e-04
       H  2.04792e-03  1.33513e-03 -1.21578e-03
       H -7.21626e-04  2.42032e-03  1.13013e-03
       O  2.66040e-04  1.95773e-04  3.06885e-04
       H -3.67270e-03  6.06561e-03 -1.05365e-02
       H -1.51480e-03 -3.13387e-03 -2.82007e-03
       O  4.02623e-04 -2.37310e-04  4.01897e-04
       H -3.55749e-03  2.59713e-03 -5.07072e-03
       H -2.92189e-04  3.73159e-03  1.57362e-03
       O  4.61710e-04 -1.40990e-03 -1.39921e-03
       H  3.44249e-03 -4.43123e-03  4.80599e-04
       H -4.81840e-03  3.36678e-04 -4.36163e-04
       O -1.18053e-04 -1.05239e-03  4.12613e-05
       H  1.71408e-03  4.74706e-03 -4.69332e-03
       H  3.73297e-03 -3.55973e-03 -3.99810e-04
       O -1.14544e-03 -8.06804e-04 -1.47272e-03
       H  4.74884e-03  6.34280e-03 -4.91755e-03
       H -4.05503e-04 -3.56909e-04  2.30952e-03
       O -1.34941e-03  1.62971e-04  8.97518e-04
       H -2.09038e-03 -6.49620e-03 -1.69637e-03
       H  4.77502e-04  1.02834e-03  8.90289e-03
       O -4.41316e-04  6.33800e-04 -7.17474e-04
       H  7.54072e-04  1.23913e-03 -4.13477e-03
       H -2.14759e-03 -1.17153e-04 -5.28372e-03
       O -6.63904e-05 -8.95799e-04 -4.95906e-04
       H -9.52698e-04  2.26377e-03 -6.48274e-04
       H -4.17072e-03  2.11954e-03 -4.05381e-03
       O  4.11602e-04 -6.08026e-04  9.68798e-04
       H  2.54342e-03  4.86995e-04  2.14003e-03
       H  3.92508e-03  2.89907e-03 -1.03181e-03
       O -6.82679e-04 -5.60990e-04  1.07847e-03
       H  8.35484e-03 -3.36068e-03 -2.83599e-03
       H -2.11595e-03  4.07835e-03 -5.96063e-04
       O  7.05956e-04  6.89397e-05 -1.61812e-04
       H  9.32835e-03 -8.01728e-04 -6.55670e-03
       H  4.10015e-03 -2.96200e-03  7.26269e-04
       O -1.23992e-04 -1.76650e-04  1.34825e-04
       H  1.13571e-03  2.65269e-03 -5.06350e-03
       H  1.00279e-03 -3.04583e-03 -1.81053e-03
       O  1.65174e-03 -2.10028e-03  3.84964e-04
       H -7.47841e-04 -3.05885e-03  3.32985e-03
       H  4.93918e-04  1.00085e-03  2.55626e-03
       O -1.10658e-03 -5.14869e-04  3.61893e-04
       H  4.66920e-03 -1.06353e-03 -1.00763e-03
       H -1.21059e-03 -5.29194e-03  3.76417e-03
       O  1.12194e-03  1.28973e-03  4.41774e-04
       H  4.49861e-03 -3.51255e-03 -1.09377e-03
       H -8.58695e-04  3.87759e-04 -6.57543e-03
       O -1.74790e-03 -1.23250e-03  1.63319e-03
       H  4.65192e-03 -5.75951e-05 -1.39438e-03
       H -4.11981e-03 -1.03085e-03 -5.10253e-05
       O  6.63287e-04  1.66025e-03  2.10823e-04
       H  5.68041e-03 -5.28354e-03  8.61895e-04
       H -3.15277e-03 -6.12187e-04  1.15422e-02
       O -1.82693e-04 -2.53632e-04 -3.54170e-05
       H  5.00321e-03  2.28768e-03  1.54771e-03
       H -1.30299e-04  2.43356e-05 -1.80082e-03
       O -1.39288e-03  5.37921e-05 -1.67872e-03
       H -4.05390e-03 -2.93745e-03  7.79002e-03
       H  5.18400e-03  2.54419e-04  1.17565e-03
       O  1.06848e-03 -1.35060e-03  4.82659e-04
       H  2.31606e-03  3.68022e-03  3.14853e-03
       H  1.30103e-03  2.51480e-04 -8.51986e-04
       O -3.01402e-04 -5.79542e-04 -7.61096e-04
       H -5.34801e-03  5.83967e-04  4.39645e-03
       H -1.08795e-02  3.26254e-03 -1.90930e-03
       O  1.36128e-03 -1.56035e-03  2.04042e-04
       H  6.08957e-03  3.09678e-03 -1.77368e-03
       H -2.51191e-03 -9.21850e-04  9.10914e-03
       O  1.14753e-03 -7.18843e-04 -3.46438e-04
       H  7.62316e-03  5.17381e-03 -1.47283e-03
       H -6.20536e-03 -9.43655e-04 -4.93465e-03
       O  2.07458e-03  5.56516e-04 -2.64449e-04
       H  1.76518e-03  2.04943e-03  1.49521e-04
       H  2.66383e-03  4.45095e-04 -8.55663e-03
       O -4.18507e-04  6.30973e-04  1.14653e-03
       H -1.04523e-03 -2.57986e-04  4.03117e-03
       H -5.87462e-03  2.14322e-05  1.60788e-03
       O -4.25146e-04  2.67645e-04  4.62691e-04
       H -9.23861e-04  1.17673e-03  2.23774e-03
       H  1.42089e-04  2.47718e-03  3.48419e-03
       O  3.50098e-04 -7.68680e-04 -5.93435e-04
       H -2.50700e-03 -2.89024e-03 -4.63606e-04
       H -3.79567e-03 -2.79764e-03  4.79980e-03
       O  1.13340e-03 -2.30967e-04 -1.39554e-03
       H  6.13804e-03 -5.14812e-03  4.22229e-03
       H  3.42010e-04 -5.13554e-03 -1.21854e-03
       O -6.35854e-04  1.38619e-04 -4.91418e-04
       H  6.55329e-03 -4.32835e-03 -5.53238e-03
       H  2.92085e-03  5.52648e-04 -2.54539e-03
       O  2.77703e-04 -3.03839e-04 -7.89503e-05
       H -1.57350e-03 -1.62105e-03  1.67989e-03
       H -4.23678e-03  1.56950e-03  4.96038e-03
       O -4.51202e-04 -1.09981e-03  4.01371e-04
       H  2.00840e-04  8.47544e-05 -2.33904e-03
       H -4.29054e-04 -2.06671e-03 -4.88509e-03
       O  1.09236e-03 -7.61964e-04 -6.41889e-04
       H  9.05041e-03 -2.68924e-03  4.98011e-03
       H  9.09087e-03  2.46850e-04 -4.91045e-03
       O  1.39904e-04  8.95259e-04 -2.18424e-04
       H  2.16979e-03  1.92948e-04  2.60759e-03
       H -3.30526e-03  3.29288e-03  8.97197e-05
       O  2.07765e-03  1.25598e-03  1.40971e-03
       H  3.06899e-03  2.21616e-03  6.25994e-03
       H -2.88977e-03 -3.40625e-03 -5.11706e-03
       O  4.91743e-04  8.05673e-04 -1.78189e-03
       H -2.02441e-03 -2.61262e-03 -3.98352e-04
       H  3.39713e-03  6.13680e-04 -1.97716e-04
       O -4.36616e-04 -4.03713e-04  6.08715e-05
       H  5.62679e-03  1.67684e-03  1.22301e-03
       H -2.59850e-03 -3.49230e-03  7.02894e-04
       O -1.24088e-03  2.64012e-04  9.22814e-04
       H -3.07407e-03 -1.56783e-03 -1.44563e-03
       H  3.77840e-04 -1.20568e-03  9.78075e-04
       O  1.91354e-03  1.14363e-03  3.39374e-04
       H  1.32757e-03  3.17958e-03 -3.83148e-03
       H -1.80700e-03  5.60966e-03 -2.67687e-03
192
# CELL(abcABC):   16.99620    29.43815    27.67315    90.00000    90.00000    90.00000  Step:          30  Bead:      14 velocities{atomic_unit}  cell{atomic_unit}
       O  1.84515e-04  1.92027e-04  8.39621e-04
       H -6.75980e-03 -2.85164e-03 -3.28883e-03
       H  1.15526e-03 -3.22850e-03 -4.06223e-03
       O  7.15180e-04  7.75093e-04 -1.19104e-03
       H  6.49625e-03  3.47614e-03 -6.65078e-03
       H -2.34598e-03  1.60043e-03 -2.61291e-04
       O -8.04012e-04  7.07921e-04 -7.29281e-04
       H  2.42799e-04  4.87817e-03 -5.40664e-03
       H -2.19482e-03 -4.29094e-03 -5.49291e-03
       O  5.43510e-04  1.90245e-03  8.30414e-04
       H  1.34735e-03 -1.34277e-03  3.43367e-03
       H -7.89811e-03  1.43881e-03 -3.27688e-03
       O  6.92784e-04 -8.22685e-04  2.05317e-04
       H  2.41996e-03  4.91781e-03  1.47768e-03
       H -6.14763e-04 -4.63425e-03  2.11628e-03
       O  9.88440e-04 -8.20728e-04 -7.40074e-04
       H  9.74412e-04  1.07099e-03 -1.21407e-03
       H  2.43406e-03 -2.29902e-03 -5.31759e-03
       O -5.50509e-04 -1.00921e-03 -1.67989e-03
       H -7.98773e-04 -2.65077e-03 -3.99484e-03
       H -2.09574e-03 -1.36424e-03 -2.73225e-03
       O  2.67478e-04  1.69545e-06 -1.19850e-03
       H  5.96517e-04  1.81009e-03  3.34916e-03
       H -7.07448e-03  5.71865e-03 -2.49830e-03
       O  4.47800e-06  1.07052e-03  5.13637e-04
       H -4.62308e-03  2.77905e-03  4.60337e-03
       H -1.30662e-03  3.21469e-04  2.54830e-03
       O -4.49283e-04 -5.74452e-04  8.40262e-04
       H -1.89961e-03  4.08066e-03  1.40074e-03
       H -3.01737e-03 -6.62417e-03  3.14678e-03
       O  1.24189e-03  6.69199e-04  9.87646e-06
       H -1.61734e-03 -6.82608e-03  5.92499e-03
       H -3.73042e-03 -1.37158e-03 -1.63324e-03
       O -1.43169e-04 -3.50362e-04  1.21152e-04
       H  7.02454e-03 -3.29852e-03 -4.25846e-03