192
# CELL(abcABC):   16.99620    29.43815    27.67315    90.00000    90.00000    90.00000  Step:           0  Bead:      16 velocities{atomic_unit}  cell{atomic_unit}
       O -4.66862e-04  7.22214e-04  7.13335e-04
       H -6.42129e-03 -2.29937e-03  3.09432e-03
       H -4.30349e-03 -6.88698e-03 -1.44580e-03
       O  2.29755e-04  1.33260e-03 -1.05016e-03
       H -3.65955e-03 -3.01647e-03 -2.89204e-04
       H -5.16813e-03 -8.48513e-04  6.91012e-03
       O  9.13688e-04  7.05958e-04 -1.16929e-03
       H -1.18028e-03  3.21284e-03 -1.14675e-03
       H -2.50139e-03 -5.77341e-04 -6.22047e-03
       O  6.78166e-04  2.36311e-03 -6.32715e-04
       H -1.63325e-03  3.91480e-03 -8.62568e-04
       H -5.83846e-03  7.01309e-04 -2.09573e-03
       O  5.22164e-04  3.99903e-04 -1.03649e-04
       H -7.09642e-04  5.59179e-03  3.69365e-05
       H  1.63737e-03 -5.34240e-03 -3.49729e-03
       O  4.20920e-04  8.87851e-04  6.58129e-05
       H -2.17095e-03  2.86186e-03 -8.40215e-04
       H  5.95897e-04  2.96654e-03 -7.77856e-03
       O  1.91208e-03 -1.59446e-03  3.11353e-05
       H -5.95106e-03  3.11224e-03  1.69824e-03
       H -4.40394e-03 -1.71621e-03 -4.56075e-03
       O  5.53010e-04  5.73393e-04 -1.44341e-04
       H  1.17781e-02  1.33056e-03  1.11478e-04
       H -5.26997e-04 -7.28625e-04  2.28713e-04
       O  1.28737e-03  5.57874e-04 -5.80014e-04
       H  2.27249e-03 -1.26807e-03 -2.16325e-03
       H -4.89791e-03 -4.23881e-03  9.85182e-04
       O -4.95327e-04 -7.76201e-04  9.97969e-04
       H -2.47956e-04 -8.08392e-03  2.84585e-03
       H -6.61747e-04 -5.10932e-04 -1.74884e-03
       O  6.70606e-05  4.61941e-04  1.09768e-03
       H -5.05360e-03 -2.01025e-03  3.73470e-03
       H -8.04695e-03  5.10453e-03 -2.69315e-03
       O  4.35717e-04  1.94757e-03  7.72965e-04
       H  4.37429e-03  1.06774e-03  2.58799e-03
       H  5.42924e-04  7.76432e-04 -2.57188e-03
       O -1.45803e-03  8.89497e-04  8.54683e-04
       H  2.48695e-03 -5.24655e-05 -2.95094e-03
       H -4.01711e-03 -5.41704e-03 -8.62859e-03
       O -9.75713e-04 -1.73944e-04 -7.09634e-04
       H  3.29193e-03 -3.70406e-03 -1.76165e-03
       H -1.06994e-02 -2.22162e-03  1.41930e-03
       O -2.67601e-04  1.35026e-04  1.38169e-03
       H  7.86421e-04  8.41567e-04 -2.66244e-03
       H  5.08731e-03 -6.57333e-04  4.63168e-03
       O -3.35258e-04 -2.68872e-04  6.91931e-04
       H -2.44288e-03  3.60077e-03  1.72135e-03
       H -4.77056e-03  2.92218e-03  3.92226e-03
       O  1.18692e-03 -7.22178e-04 -1.83305e-04
       H -3.90082e-03 -5.49202e-03 -3.06943e-03
       H -7.14694e-04  4.91249e-03 -7.25631e-03
       O  7.61714e-05  1.55347e-04 -1.18128e-03
       H -1.19587e-02  5.30245e-03 -8.40505e-03
       H -4.94067e-03 -2.82932e-03  4.54867e-04
       O  6.76945e-04  1.14216e-05  6.66771e-04
       H  1.18684e-03  3.19137e-03  2.31212e-04
       H  8.31406e-05 -5.32156e-04 -1.30118e-03
       O -7.79600e-05 -5.20197e-04  1.37950e-03
       H  2.17026e-03  1.87059e-04 -1.39894e-03
       H  3.31971e-05  1.39833e-03 -1.94412e-03
       O  5.09268e-04  5.47677e-04 -1.28740e-03
       H -8.68877e-03  3.71671e-03  6.18473e-03
       H -2.79060e-03 -1.39566e-03 -1.14004e-03
       O -1.56777e-03  7.97759e-04  3.90886e-04
       H -2.45128e-03 -2.93040e-03 -2.73393e-03
       H  4.09023e-03  1.58875e-03  1.15035e-03
       O -1.02488e-03  3.15136e-04 -2.09015e-03
       H  3.52807e-03 -2.38043e-03  2.41840e-03
       H  2.94010e-03  1.88570e-03  5.39431e-03
       O -3.30904e-04 -5.02467e-04 -6.83419e-04
       H -1.21770e-03 -4.06117e-03 -1.55634e-03
       H -2.38008e-03 -1.87155e-03  3.63777e-03
       O  1.39295e-03  7.81887e-04 -1.32697e-03
       H  3.70989e-03 -4.01332e-03  1.36953e-04
       H  3.86600e-03 -3.52655e-03  7.96831e-05
       O  4.90421e-05 -1.63878e-03 -2.05720e-04
       H  1.14587e-03  6.72700e-03  1.33336e-03
       H -2.64824e-03 -2.11543e-03  7.38928e-04
       O -5.31461e-04  1.39974e-04 -5.99483e-04
       H -1.68092e-03  2.43659e-03 -3.81920e-04
       H -4.38218e-04  9.30252e-04  3.25050e-03
       O  4.47075e-04 -7.94477e-04 -2.36095e-04
       H  7.05744e-04 -1.11221e-03 -8.10662e-03
       H  5.68474e-03  4.81912e-04  2.13776e-03
       O -1.45610e-03 -2.28923e-04 -2.01804e-03
       H  1.98506e-03 -9.49335e-04 -4.86795e-03
       H -2.36515e-03 -3.73264e-03  1.57532e-03
       O  3.69245e-04 -6.93254e-04 -1.61834e-03
       H  1.25533e-04 -1.67157e-03 -1.66171e-03
       H  1.61906e-03  4.54484e-03  4.49464e-03
       O -1.39286e-04 -9.21924e-04  2.71086e-04
       H  4.65046e-04  1.39223e-03 -6.69301e-04
       H -2.09973e-03  1.50449e-03 -1.61335e-03
       O -8.45252e-05  7.12885e-05  1.38533e-03
       H  3.97776e-03 -2.94037e-04  2.28756e-03
       H -3.34180e-03 -8.38048e-03  5.87711e-03
       O  1.74138e-05  3.85776e-04  1.44801e-04
       H -9.86913e-04  1.48790e-03  2.89899e-03
       H -3.36021e-03 -6.78813e-04  1.30986e-05
       O  2.19623e-03 -1.56080e-03  3.16186e-04
       H  3.52642e-04  3.99972e-03 -3.67891e-03
       H -2.24458e-03 -4.36072e-03 -1.56993e-03
       O -5.05647e-04 -1.30654e-03  2.86460e-04
       H -5.95146e-04  4.05590e-03 -1.43891e-03
       H -3.40182e-03 -4.90843e-04  9.11458e-04
       O -4.60062e-04  1.33358e-03  2.74627e-04
       H -2.59133e-03  2.19637e-03 -1.45205e-03
       H  2.35531e-03 -5.74165e-03 -3.45307e-03
       O -5.31548e-04  8.75933e-04  1.14175e-03
       H  2.49958e-03 -4.94047e-03 -5.44619e-03
       H  1.09513e-03 -7.74712e-03 -6.17030e-03
       O -1.88827e-04  7.74824e-04  8.75586e-04
       H -1.00002e-03  4.18123e-05 -9.30506e-03
       H  3.80064e-03 -5.25895e-03  2.33910e-04
       O -1.14497e-04  2.41846e-04  2.47741e-05
       H  2.24370e-03  2.59381e-03 -2.36953e-03
       H -5.89617e-03 -5.31056e-03  3.33070e-03
       O -5.95571e-04 -1.55666e-04  6.09966e-04
       H -4.71502e-03  1.63304e-03  4.16925e-03
       H  4.52245e-03  5.84989e-03 -1.35057e-03
       O -1.29226e-03 -8.07381e-04 -1.47021e-03
       H  4.77180e-03  4.44959e-03 -4.21059e-03
       H -6.34886e-03 -1.23257e-03  7.98588e-03
       O  2.52340e-04 -1.83895e-04 -5.16838e-05
       H  3.48965e-03 -3.82087e-03  1.82102e-03
       H  4.19282e-03 -1.35480e-03 -4.48621e-03
       O  5.77187e-05 -5.99192e-04  1.15682e-03
       H  4.91000e-03 -2.44981e-03  5.02497e-03
       H  4.25908e-04 -1.32602e-03  3.82585e-03
       O  2.33789e-04 -3.39173e-04 -2.78745e-04
       H  3.09240e-03 -2.28930e-03 -6.73674e-04
       H -3.24199e-03 -1.19506e-03 -1.54848e-03
       O  1.08320e-03  4.53019e-04 -3.74796e-04
       H -1.03273e-04 -9.87268e-04  4.11459e-03
       H -5.09219e-03 -1.71508e-03 -3.98699e-04
       O  1.12181e-03  6.53632e-04  6.77705e-04
       H  2.77847e-03  4.08792e-03  2.61571e-04
       H  1.06281e-03 -3.55805e-03  2.56535e-04
       O  1.02708e-03 -1.25495e-03  1.36210e-03
       H -3.10872e-03  3.76872e-03 -3.20686e-03
       H  4.59911e-03 -4.44256e-03 -3.83070e-03
       O  8.89908e-04  2.12254e-04 -8.71271e-04
       H  9.34852e-04 -6.20104e-03 -1.29847e-04
       H  1.21085e-03  3.75563e-03 -3.45066e-03
       O -4.39505e-04 -7.49106e-04 -1.48244e-04
       H -4.96878e-03  2.04322e-03 -3.08819e-03
       H -1.31359e-03 -1.60390e-03 -2.44068e-03
       O -1.15350e-03  1.32650e-03  1.90369e-03
       H  7.85953e-03 -2.91898e-03 -3.91563e-03
       H -9.84146e-04 -8.76756e-03 -7.90355e-04
       O -2.37465e-04  5.85679e-04 -3.87182e-05
       H  2.40893e-03  5.51621e-03 -3.25421e-03
       H -8.62669e-04 -5.36923e-04 -2.10585e-03
       O -1.18757e-03 -6.76919e-04  5.88917e-04
       H -1.95499e-03 -3.15334e-03 -1.72997e-03
       H  4.24823e-03 -6.01050e-04  5.21679e-03
       O -7.65353e-04  6.25618e-04  4.86687e-04
       H  1.59321e-04  1.25397e-03  2.27838e-04
       H -1.38531e-03  4.91348e-03 -6.55030e-03
       O -3.38145e-04 -5.34612e-04 -1.00899e-03
       H  3.44249e-04  3.55972e-03  1.75954e-03
       H  5.41683e-03  1.89614e-03  7.95718e-04
       O -3.88708e-04 -1.13169e-03 -9.19842e-04
       H -2.02282e-03  9.78174e-04 -6.65708e-04
       H -1.25830e-03 -1.52253e-03  7.38923e-03
       O -3.67465e-05  5.16108e-05 -3.07909e-04
       H -9.49509e-04 -3.33127e-03 -6.59435e-03
       H -3.53124e-03 -6.16701e-03 -9.77186e-04
       O -3.31411e-04  7.19517e-04  1.05549e-03
       H -2.69779e-03  6.99045e-03  1.53404e-03
       H  6.53713e-04  4.50952e-03  3.68712e-03
       O -1.17711e-04 -9.45167e-05 -2.49215e-04
       H  1.66208e-03 -5.16255e-03 -2.04035e-03
       H -1.93072e-03 -6.65430e-04 -3.31923e-03
       O -6.52026e-04 -4.62528e-04  1.45698e-03
       H -5.80605e-03 -9.31662e-04  6.97692e-03
       H -3.85105e-03 -2.92775e-04 -2.11264e-03
       O  9.23706e-04 -2.04280e-04  5.94007e-05
       H -3.80097e-03  1.23177e-03  3.70331e-03
       H  2.43248e-03 -2.08689e-03 -2.18776e-03
       O  6.88119e-04  7.33104e-04 -1.09391e-03
       H  1.95051e-03 -2.61456e-03  1.83195e-03
       H  1.32689e-03  7.50265e-05  4.70148e-03
       O -1.52619e-03 -1.31955e-03 -1.26113e-03
       H  4.49896e-04  2.98838e-04  1.95140e-03
       H  9.60560e-03  2.60786e-03  7.26260e-06
       O -2.53280e-04  5.69688e-04 -5.78679e-04
       H -4.91378e-04 -9.62010e-05  7.45864e-03
       H  1.25471e-03 -7.02804e-03 -1.13946e-03
       O  1.88596e-03 -2.16805e-03 -3.93772e-04
       H -4.44576e-03  2.58475e-03  5.29817e-03
       H -1.04257e-03  2.55210e-03 -4.56760e-03
192
# CELL(abcABC):   16.99620    29.43815    27.67315    90.00000    90.00000    90.00000  Step:          10  Bead:      16 velocities{atomic_unit}  cell{atomic_unit}
       O -8.40156e-04 -2.87593e-04  9.71006e-04
       H  4.72635e-03  1.18734e-03 -2.07192e-03
       H  2.94320e-03  3.71697e-03 -5.32207e-03
       O -1.72576e-03 -3.18092e-04  3.51535e-04
       H  5.39787e-03 -2.49472e-03 -3.46873e-03
       H  4.68571e-03  1.15350e-03 -6.38012e-05
       O -4.12056e-04  2.05181e-03  3.14974e-04
       H -5.99159e-04 -5.13272e-03  3.79991e-03
       H -5.53113e-04  8.59023e-04 -5.76534e-05
       O -1.33315e-04  1.40785e-04  5.29362e-04
       H -1.43920e-03 -1.11013e-04 -4.16175e-03
       H  2.51903e-03  1.30332e-03  4.01605e-03
       O -6.35112e-04  5.73966e-04 -2.53273e-04
       H  3.97017e-03  1.03600e-03  1.23372e-03
       H  1.14769e-03  9.06968e-04 -1.55914e-03
       O  6.68255e-05 -6.55538e-04 -1.34534e-04
       H  1.97465e-03  1.39147e-03 -3.29835e-03
       H  2.56049e-03  3.34709e-03 -3.51649e-03
       O  1.50163e-03  3.57550e-04  5.95376e-05
       H -7.53534e-03 -8.14674e-04  6.74200e-03
       H  6.41415e-03 -1.89196e-03 -5.52971e-04
       O -1.56798e-04 -1.76612e-04 -7.12434e-04
       H -2.92629e-03 -4.57291e-03 -2.04866e-03
       H -3.70824e-03  3.97284e-03 -1.10778e-03
       O -4.73543e-04  1.57234e-03  9.69855e-04
       H -3.50110e-03  1.82859e-03  1.97918e-03
       H -5.67876e-03  4.77627e-04  1.95027e-03
       O  3.63417e-04 -6.05805e-04 -2.34887e-03
       H -6.76330e-03  2.88130e-04 -2.22211e-03
       H -1.49555e-03 -5.13403e-03 -2.01109e-03
       O -2.44867e-05 -1.48199e-03  9.00517e-04
       H  5.54704e-03 -3.22697e-03 -1.05173e-04
       H -2.03556e-03 -4.97744e-03  1.43009e-03
       O -1.14310e-03  2.94406e-04 -3.51995e-04
       H  2.44200e-03 -7.30595e-03 -3.87085e-03
       H  5.09496e-03  4.04340e-03  6.38585e-04
       O  1.78056e-03  1.01333e-05 -6.29223e-04
       H -5.03721e-04  2.41809e-03  1.57047e-03
       H  3.01355e-03  6.20663e-03 -3.59175e-03
       O  1.52739e-03 -3.95155e-06 -1.49138e-03
       H  5.54601e-04 -3.32696e-03 -3.97068e-03
       H -5.04961e-03  6.06780e-04 -1.47860e-03
       O  4.45602e-04  3.28753e-04 -3.51766e-04
       H -6.70209e-04  3.18239e-03  1.63758e-03
       H  6.29465e-03 -2.13760e-03 -1.32987e-03
       O -1.12710e-03  2.91619e-04  6.74087e-04
       H  1.75752e-03  2.73033e-03  1.78822e-03
       H -4.35220e-03  3.93552e-04  5.30529e-03
       O  1.53003e-03 -9.09884e-04 -3.98027e-04
       H -2.88934e-03  3.40329e-03  3.89340e-03
       H -1.19791e-03 -5.33558e-03  7.12969e-04
       O  2.20800e-04 -3.08977e-04  7.87829e-04
       H -1.13379e-03 -1.24755e-03 -2.48872e-03
       H  3.31832e-03 -4.85029e-04  4.44274e-03
       O -1.62855e-03 -7.07132e-04 -7.88874e-04
       H -3.54761e-03  1.85753e-03  8.82163e-04
       H  7.48231e-04  2.73576e-03 -2.22026e-03
       O -4.04142e-04  1.50961e-04 -3.36417e-04
       H  1.01153e-03 -4.31361e-03 -1.37298e-03
       H  8.42126e-03 -1.69299e-03 -5.00211e-03
       O -1.42863e-04  1.00884e-03 -5.48075e-04
       H  6.13632e-04 -2.55022e-03 -9.19913e-04
       H -4.33727e-03  6.03743e-03 -2.43523e-03
       O -1.02743e-03 -5.19191e-05 -5.04765e-04
       H -5.95895e-03  2.83779e-03 -1.24498e-03
       H  3.21606e-03  4.44961e-03  1.05742e-02
       O -1.07717e-03  7.21864e-04  4.03010e-04
       H  4.50946e-04  3.18910e-03 -8.78304e-04
       H -2.92334e-03  1.74073e-03 -6.67090e-03
       O  4.06033e-04 -5.75733e-04  1.31016e-03
       H -2.67569e-03 -4.51640e-03  9.12238e-05
       H -2.77188e-03  4.24925e-03  7.31952e-03
       O -3.99965e-05  1.48175e-04 -8.07340e-04
       H -7.11744e-04  1.92509e-03 -2.83369e-03
       H  6.46730e-03  2.14348e-03  6.38167e-03
       O  1.06050e-03 -2.22397e-04 -8.24890e-04
       H  4.30245e-03  9.11102e-04  3.48049e-03
       H  1.16738e-03  8.67638e-03  3.08466e-03
       O  1.28019e-03  6.94116e-04  6.92095e-04
       H -3.83103e-03 -1.87965e-03 -3.67191e-03
       H -2.51411e-04  1.18898e-03  7.53297e-04
       O -9.45685e-04  1.39359e-03  7.28143e-05
       H  5.21204e-03 -8.92477e-03 -1.77831e-03
       H -1.32197e-03 -4.82268e-04 -6.02859e-03
       O  9.88039e-04  1.44632e-04  3.65131e-04
       H  7.47948e-04  8.54219e-03 -6.46422e-03
       H -6.80084e-03 -9.11524e-04 -1.02166e-03
       O -8.03747e-04 -2.65341e-04  1.28460e-04
       H  7.44882e-03  1.57612e-03 -7.99456e-03
       H  3.72886e-03 -3.78072e-03  2.37710e-03
       O -7.57444e-04 -1.26223e-04  6.97839e-04
       H  6.31095e-03  5.68112e-04  3.68856e-03
       H -1.52821e-03  1.41842e-03  3.02471e-03
       O -1.20834e-03 -2.57482e-04 -7.71477e-04
       H  6.10270e-03  2.63553e-03 -3.80888e-04
       H -3.14389e-03  1.67149e-03  2.65978e-03
       O  1.35749e-03 -9.37876e-04  3.22191e-04
       H  3.30337e-04  1.83707e-03  7.95428e-04
       H  1.99198e-03  1.69862e-03  4.20079e-03
       O  1.42889e-03 -4.90177e-04 -3.99282e-04
       H  4.54114e-03 -1.36892e-03 -2.45753e-05
       H  7.66103e-04  1.38509e-03 -5.22796e-03
       O  1.56934e-03  6.18442e-04 -4.00353e-04
       H  2.20514e-03 -5.48306e-03 -9.23670e-04
       H  2.03003e-04  5.34108e-03  1.61022e-03
       O -7.56310e-04  2.36608e-03  2.11474e-04
       H -1.69590e-03  3.88694e-04 -7.64312e-03
       H -8.87435e-04  5.42799e-03 -2.31480e-03
       O  1.33281e-03 -5.18325e-04 -4.34268e-06
       H -3.40762e-04 -7.63196e-04 -2.07235e-03
       H -1.39419e-03 -2.50883e-03  2.51597e-04
       O  2.90303e-04  3.22773e-04  1.06492e-03
       H -2.81364e-03  1.53263e-03 -3.67585e-03
       H -2.03674e-03  3.50451e-03 -2.17171e-03
       O -8.83434e-05 -4.31065e-04  1.02669e-03
       H  5.79485e-03 -2.18829e-03  2.25991e-03
       H -2.71814e-03 -1.37128e-03  6.17655e-03
       O -1.35186e-03 -3.06846e-04  6.25720e-04
       H  4.57430e-03  1.74157e-03  3.72015e-03
       H  1.47480e-03  2.37653e-03 -2.60297e-03
       O -8.98548e-04 -1.15122e-03 -2.45310e-03
       H  9.08328e-04  5.44085e-03  4.40331e-03
       H  2.53326e-04 -3.82579e-03 -5.73991e-04
       O -1.87066e-03 -3.55227e-04  1.24137e-03
       H -4.27793e-04 -2.62883e-03  7.84063e-04
       H  7.02531e-03  3.25700e-03 -7.22453e-03
       O  5.86992e-04  9.32861e-04  3.28832e-04
       H  2.98814e-04 -3.43977e-03 -4.55607e-03
       H -3.14007e-03  2.05160e-03 -3.69007e-03
       O -9.65666e-04  2.63198e-04 -1.38665e-03
       H  4.92537e-03  4.54570e-03 -2.26740e-03
       H  3.76574e-04  1.25782e-03  2.29905e-03
       O -6.11022e-04  6.12880e-04  4.13239e-04
       H -1.42748e-03 -1.93204e-03 -1.70500e-03
       H -1.30741e-03 -2.00122e-03 -7.68618e-03
       O  7.81870e-04  1.14849e-03  5.48662e-04
       H -2.05041e-03  7.92274e-04 -3.01258e-03
       H -2.49844e-03 -1.22347e-03  2.73300e-03
       O  9.34018e-04 -1.34806e-03  1.25551e-03
       H  5.88929e-04 -6.27067e-03  2.99085e-03
       H -1.92313e-04 -5.55532e-03  4.41069e-03
       O -4.49178e-05 -1.17049e-03  7.15517e-05
       H -2.47843e-03  1.25135e-04  1.73465e-03
       H  1.32273e-04  3.14466e-03 -6.78688e-03
       O -4.41119e-05 -1.69421e-03 -6.51941e-04
       H -5.73541e-04  3.43185e-03  2.33023e-03
       H  1.28173e-03  2.86981e-03  2.53327e-03
       O  1.21360e-03  1.35412e-03  7.49868e-05
       H  3.13169e-04 -8.09862e-04  2.19257e-03
       H  3.01368e-03 -5.08733e-03 -1.37954e-03
       O  2.68694e-04  4.82482e-04  5.82263e-04
       H  1.15543e-03 -4.87031e-03  4.60703e-03
       H -5.60253e-03  6.58274e-03  5.37760e-04
       O  3.40902e-05 -6.12854e-04 -6.47797e-04
       H  1.34345e-03  1.72316e-03 -2.90360e-03
       H  9.37684e-04  8.79378e-04  2.58950e-03
       O  4.76741e-04  8.97597e-04  2.23454e-03
       H  3.91651e-03  1.94051e-03 -8.40144e-04
       H  2.39076e-03 -1.02650e-03 -4.99174e-04
       O  6.39438e-04 -2.50074e-04 -6.48659e-04
       H  1.05648e-05 -7.48969e-04  2.66731e-03
       H  1.12915e-03 -3.62560e-03  2.43930e-03
       O  5.11058e-04 -5.31914e-04 -5.23099e-04
       H  2.94503e-03 -8.75149e-03  6.71428e-04
       H  1.48484e-04  3.23504e-03  3.58561e-03
       O -6.98643e-06 -2.23786e-03  8.27510e-05
       H -2.98649e-04 -3.73986e-03  3.04278e-03
       H  1.37201e-03 -2.47401e-03  3.25775e-04
       O  3.35136e-04 -2.94741e-04 -6.14915e-04
       H -4.85367e-04 -3.51453e-03 -9.85873e-03
       H  3.53570e-03  2.33605e-04 -4.48751e-03
       O -4.24006e-04 -1.02019e-03  4.20384e-04
       H  5.69862e-03  2.70398e-03  2.41864e-03
       H  1.91237e-03 -4.77290e-03  2.21095e-03
       O -6.28457e-05  2.48891e-05  5.18882e-04
       H  1.81908e-04 -7.15238e-04  2.84415e-04
       H -5.65793e-03 -7.80969e-03 -3.55666e-04
       O -3.63033e-04 -9.09479e-04  5.83281e-04
       H  4.33573e-03  2.74920e-03  1.23604e-03
       H -2.83802e-03 -3.26215e-03  3.40204e-04
       O -2.32217e-04 -8.33802e-06 -1.74155e-03
       H -1.48750e-03  7.21544e-04 -1.34631e-03
       H  1.31830e-03 -1.41176e-03  3.55268e-03
       O -1.15900e-03  1.44030e-03 -1.19370e-03
       H -4.94250e-03  4.44299e-03  3.68203e-04
       H -3.24969e-03 -6.63926e-03  3.85430e-04
       O  4.20800e-04 -1.44256e-03  3.14936e-04
       H -2.93415e-03  2.90847e-03  6.75481e-03
       H  8.36589e-04  2.03729e-03  5.67483e-04
       O -2.05004e-04 -1.77296e-04  2.69898e-04
       H -8.81069e-04 -1.01822e-03  1.75243e-03
       H  2.42214e-03  2.59414e-05  4.39899e-03
192
# CELL(abcABC):   16.99620    29.43815    27.67315    90.00000    90.00000    90.00000  Step:          20  Bead:      16 velocities{atomic_unit}  cell{atomic_unit}
       O -4.73174e-04 -1.63085e-03  5.36780e-04
       H  4.71936e-04 -3.75652e-03 -4.15348e-03
       H -8.49023e-03  1.91967e-03  2.41595e-03
       O  1.25258e-03  5.15118e-04  7.74093e-05
       H -2.09653e-03 -1.63443e-03 -5.63465e-03
       H  5.52782e-04 -3.82159e-04  2.23618e-04
       O -1.42257e-03 -4.88096e-04 -1.25790e-03
       H -2.11903e-03  4.28701e-03 -5.73833e-03
       H -4.05010e-03 -1.78204e-03  4.47596e-03
       O  3.24773e-04  9.29388e-04 -2.20293e-04
       H -9.53437e-04  3.52766e-03 -2.81008e-03
       H  1.87994e-03  4.74910e-04  5.24175e-03
       O  1.24315e-03 -4.56526e-04  4.18446e-04
       H  1.17760e-03 -8.06945e-05 -1.53182e-03
       H  5.22664e-03 -1.00809e-02 -5.55650e-03
       O  3.17094e-04 -1.05196e-03  5.03269e-04
       H  2.78353e-04  6.80057e-03 -7.35189e-03
       H  3.52115e-03  1.47273e-03  3.76494e-03
       O -1.23933e-03  8.83720e-04  8.53966e-04
       H -1.25159e-03 -2.16637e-03 -2.02334e-03
       H  7.01056e-04  3.14467e-03  1.58112e-03
       O -1.17620e-03  4.50592e-04  7.79604e-05
       H  6.29568e-03  1.96491e-03  1.22439e-03
       H -8.96633e-03 -5.53896e-03  2.74233e-03
       O -3.73992e-04  1.06690e-03 -9.11564e-04
       H -2.49418e-03  2.61451e-03 -1.88437e-03
       H -6.54520e-04  1.11270e-03  1.07747e-03
       O  3.55910e-04 -5.19967e-04  6.86043e-04
       H -1.96135e-03 -2.04608e-03  4.81103e-03
       H -3.15859e-03 -4.37221e-03 -3.43363e-03
       O -1.06226e-03  3.69565e-04 -4.50152e-04
       H -2.07386e-04 -1.23539e-03  5.81050e-03
       H  3.38331e-04 -3.71703e-03  2.68660e-03
       O  7.49245e-04  9.48928e-04  2.25345e-04
       H -4.95474e-03  3.21535e-03 -2.80775e-04
       H  1.86121e-03 -9.18913e-04  2.55395e-03
       O -5.60350e-04 -6.23590e-05 -6.69655e-04
       H  2.88586e-03 -1.83370e-03 -4.84300e-03
       H -2.02511e-03 -2.25247e-03  1.90810e-03
       O  1.50275e-03 -2.45107e-04  1.08766e-03
       H  2.11385e-03  7.24033e-03 -1.33513e-03
       H -7.52763e-03 -6.54428e-03  1.95746e-04
       O -1.42945e-03  1.44883e-03 -1.03413e-04
       H -4.55917e-03  1.55263e-03 -9.38548e-04
       H  2.17708e-03 -3.60677e-04 -1.42502e-03
       O  3.63856e-04 -1.00063e-03 -2.55932e-04
       H -1.75161e-03 -5.63199e-03  7.91756e-03
       H  5.43613e-03 -1.14534e-03 -4.89816e-03
       O  1.95778e-04 -3.30517e-04 -1.30945e-04
       H  9.58961e-04 -6.51981e-03 -3.09829e-03
       H  4.87647e-04 -5.57835e-03  1.72968e-03
       O  1.30519e-05 -1.78778e-04 -7.96239e-04
       H -2.09021e-03  2.00499e-03 -3.93472e-03
       H -3.86685e-03 -2.77589e-03  7.41859e-03
       O -1.71810e-04  2.87288e-04 -7.76555e-04
       H -1.43002e-03  5.55409e-03 -2.63092e-03
       H  5.73001e-03  1.79295e-03 -4.87147e-03
       O  1.08986e-03 -8.59710e-04 -2.72156e-03
       H  5.78182e-03 -4.31893e-03 -1.73269e-03
       H  2.16739e-03  1.03063e-02 -6.27115e-04
       O -9.86693e-04  7.55766e-05 -6.11040e-04
       H  3.93279e-03 -2.69899e-03  2.53669e-03
       H  9.18703e-04  1.90351e-04  5.27057e-04
       O  1.04900e-03 -1.40604e-03  6.39825e-05
       H -4.46760e-03  3.10564e-03  6.16463e-03
       H  4.93135e-03  1.64200e-03 -2.97877e-05
       O -1.29416e-03 -1.66313e-03  1.76039e-04
       H -5.48388e-03 -4.22033e-03  1.18117e-03
       H  4.00869e-03  5.27710e-04 -8.64787e-03
       O  7.73714e-04 -1.31459e-04 -1.03950e-03
       H -5.19889e-03  3.31280e-03  3.03373e-03
       H  1.74549e-03 -7.63387e-04 -6.44078e-03
       O  6.13271e-04  7.04965e-05 -1.09118e-03
       H -5.33655e-04 -5.87322e-03  8.59891e-06
       H  3.22691e-03 -3.75353e-03  4.68199e-04
       O  1.07611e-03  1.85652e-04 -1.27134e-03
       H -4.11413e-03  1.09551e-03  8.87519e-04
       H  4.33195e-03 -1.40138e-03  1.80545e-03
       O -1.17477e-03 -4.40099e-04 -3.63599e-04
       H  4.82258e-03 -1.50580e-03 -9.80090e-04
       H -5.84641e-03  5.32832e-03  2.89187e-03
       O  5.76314e-05  6.22220e-04 -3.90580e-04
       H -5.47683e-03 -4.62440e-04  2.33084e-03
       H -2.74192e-03 -1.98351e-04  4.56564e-03
       O  6.10698e-04  1.01034e-04 -3.08737e-04
       H  1.09512e-03 -2.54035e-03 -1.79438e-03
       H  5.66563e-04 -3.41185e-03  5.54938e-03
       O  1.18310e-03  1.62807e-03  1.58817e-03
       H  5.28147e-03  2.11974e-03 -1.02327e-03
       H  1.25225e-03  9.64662e-04  4.61947e-03
       O -2.19458e-04 -2.54732e-04  7.51412e-04
       H  3.50145e-03  5.52001e-03  2.30794e-03
       H  1.70525e-04 -1.47935e-03  1.89030e-03
       O -1.41797e-03 -7.64470e-04  1.15167e-03
       H  7.20292e-04  1.90892e-03  1.17380e-03
       H  1.03785e-02  1.52395e-03  8.59220e-04
       O -6.33191e-04 -1.60363e-03 -4.33033e-04
       H -2.78187e-03 -2.08527e-03 -9.04863e-03
       H -1.43106e-03  3.63544e-04  5.81644e-03
       O -3.01558e-04 -6.22340e-05 -4.59419e-04
       H  6.90249e-03  3.63750e-04  6.78749e-03
       H  1.01929e-03  4.74310e-03  2.44195e-03
       O -6.00402e-04  8.67868e-04 -1.18774e-03
       H -1.21380e-03 -3.55052e-03 -4.54740e-03
       H  8.00621e-03  5.05091e-03 -2.82312e-04
       O  7.28193e-04 -6.21123e-04  1.10147e-04
       H -5.86399e-03 -4.36822e-03  9.30156e-04
       H -4.14567e-05 -2.04130e-03  3.83857e-03
       O  1.79394e-04 -4.27078e-04  3.59900e-04
       H -4.52671e-03 -4.92590e-03 -2.25301e-03
       H -4.66835e-04 -1.02618e-03  3.27312e-03
       O -7.93854e-04 -1.08953e-03  2.95376e-04
       H -2.99280e-03  2.81606e-03  3.34135e-03
       H  3.99710e-04 -2.95872e-03 -1.35538e-05
       O  5.64659e-04 -3.83676e-04  6.18208e-04
       H -1.56981e-03  8.36377e-04  3.15283e-03
       H -2.54251e-03  4.95138e-03 -5.00398e-03
       O  1.13193e-03  7.10505e-05 -5.92178e-04
       H -3.03507e-03  5.75108e-03  2.08989e-03
       H  1.50853e-03 -7.54488e-04 -4.68386e-03
       O  1.93902e-03  9.99258e-05 -8.13466e-04
       H -1.81394e-03 -6.93655e-03 -2.58452e-03
       H -6.26444e-04 -5.60251e-04 -3.10355e-04
       O  6.37245e-04 -1.04990e-03 -1.76591e-03
       H -6.48540e-03  4.24912e-03 -2.69832e-03
       H  3.83610e-03  1.87056e-04  3.74604e-03
       O -1.10241e-03 -9.11459e-04  1.36041e-03
       H -1.82700e-03 -2.44809e-03  6.38299e-04
       H -4.66021e-03  1.10179e-02  4.09935e-03
       O  1.24579e-03 -1.28848e-04  4.79355e-04
       H -1.66869e-03  2.23164e-03 -1.25043e-03
       H  1.22611e-03 -7.19939e-04  3.03081e-03
       O -1.20879e-03 -8.91378e-05 -3.90280e-04
       H  5.44930e-03  3.22616e-03 -2.16782e-03
       H  6.96381e-04  1.59365e-03  2.03995e-03
       O  1.12787e-03 -1.22581e-03  1.27532e-04
       H  7.49262e-04 -4.41636e-03  9.72740e-04
       H -3.67684e-03  4.05497e-03 -2.14265e-03
       O  1.08379e-03  1.86430e-03  5.22192e-04
       H -2.36202e-03 -1.67858e-03  3.74535e-03
       H  1.44338e-03 -8.05684e-04  1.96725e-03
       O -2.66425e-05 -1.07322e-03  7.61729e-04
       H -4.74647e-04  8.85079e-05 -1.25416e-03
       H  1.29571e-03 -5.76364e-04  6.76149e-04
       O  5.03301e-04  2.20487e-03 -1.65077e-04
       H  4.02265e-03 -6.20838e-03 -2.93947e-03
       H -3.92612e-03 -8.80393e-04  1.10014e-03
       O  9.83079e-04  1.03538e-03 -6.85877e-04
       H  1.66117e-03 -3.71959e-03  4.30151e-03
       H  3.43191e-04  4.14282e-03 -6.45528e-03
       O -2.36729e-03  4.49701e-04 -3.70198e-04
       H  2.03013e-03 -3.52731e-03 -1.12436e-04
       H  1.06860e-03 -6.25048e-03 -1.50838e-03
       O -6.52292e-04 -1.83828e-03  1.01895e-03
       H  4.02979e-04 -5.44062e-05  1.52673e-03
       H -6.55406e-03  6.17621e-04  3.86548e-04
       O -2.99129e-04  1.08632e-04  1.48230e-04
       H -1.71228e-04  1.67631e-04 -3.08091e-03
       H -4.79342e-03 -4.74385e-04 -1.28418e-03
       O -1.38716e-03  6.94957e-04 -6.83856e-05
       H  2.49813e-04 -7.56859e-04 -2.71519e-03
       H -3.30409e-03  5.36058e-03 -8.10254e-04
       O -8.12714e-04 -1.29614e-03  6.87375e-04
       H  3.97778e-03  1.53487e-03  6.27740e-03
       H  5.48061e-03  6.66803e-03 -6.15351e-03
       O -7.53041e-04  1.83303e-03 -8.74033e-04
       H -5.39490e-03 -2.43927e-03 -6.60066e-03
       H  1.68111e-03  3.46786e-03  4.83856e-03
       O  2.27437e-04 -1.17993e-03 -8.95635e-04
       H  1.80447e-03 -5.96071e-04 -8.04086e-04
       H -4.24740e-03 -1.27881e-03  1.75165e-03
       O  5.14658e-04 -7.58783e-04  2.93613e-04
       H -2.54957e-03  2.99764e-03 -3.57936e-03
       H -2.01006e-03 -1.51915e-04  5.81697e-03
       O -6.01368e-04 -8.30850e-05  2.69236e-04
       H -6.29041e-04 -4.74302e-04 -4.47254e-03
       H  1.34682e-03  5.26979e-03  4.34684e-03
       O -1.05117e-03  1.18637e-04 -3.59777e-04
       H  2.77822e-03  1.92276e-03  2.37650e-03
       H -2.05153e-03 -5.25905e-04  4.03519e-03
       O  1.33013e-03  8.27373e-04  5.80473e-04
       H -9.59339e-04 -1.17643e-03  4.86808e-03
       H  2.87011e-03  6.14034e-03 -4.49835e-03
       O -3.81195e-04  2.82378e-05  7.56484e-04
       H  7.12044e-04 -5.99335e-03  3.11539e-03
       H  3.66199e-03 -2.29740e-03 -6.01277e-03
       O -5.15048e-04  2.98326e-04  2.68013e-04
       H -3.05706e-03  3.08613e-03 -4.70628e-03
       H  2.10403e-03  1.74664e-03  2.30790e-03
       O -1.08202e-03 -3.23974e-04  1.38040e-04
       H  1.06536e-03  5.73206e-03  1.09693e-03
       H  4.70000e-03 -3.96330e-03 -1.02766e-03
192
# CELL(abcABC):   16.99620    29.43815    27.67315    90.00000    90.00000    90.00000  Step:          30  Bead:      16 velocities{atomic_unit}  cell{atomic_unit}
       O  8.36645e-04  6.83313e-04  1.82842e-03
       H -4.18031e-03  8.62627e-03  3.71983e-03
       H -4.57800e-03 -4.86864e-03  3.47800e-04
       O -5.14495e-04  1.10214e-03  5.44683e-04
       H  4.57803e-04  1.42769e-03 -1.89603e-03
       H  3.25792e-03  1.19584e-03 -4.85316e-03
       O  4.00945e-05  1.99199e-04  2.66939e-05
       H -2.74213e-03  9.69105e-04 -1.23312e-03
       H  6.22060e-03 -5.64410e-03 -3.47417e-03
       O  8.23329e-04 -5.48076e-05 -8.33119e-04
       H -3.27808e-03 -4.26942e-03  1.52798e-03
       H -1.68050e-03 -4.14809e-03 -4.00412e-03
       O  3.59020e-05 -1.01191e-03 -7.57846e-04
       H -3.26325e-03  4.13508e-03  3.86950e-03
       H  4.92386e-03  5.32033e-03  9.48450e-04
       O -7.56599e-04 -1.00996e-03 -4.93009e-04
       H -1.32510e-03  4.38921e-03  1.94827e-03
       H  1.08852e-04 -9.51307e-03 -8.55017e-04
       O -2.96739e-05  9.56093e-04  8.08458e-05
       H -2.10867e-03  7.53448e-03  1.12064e-03
       H -1.56967e-03  1.85522e-04 -4.69761e-04
       O  8.46941e-05  4.10086e-04 -3.71512e-05
       H  4.63253e-03  1.92405e-03  2.28511e-03
       H -5.68899e-03  1.50777e-03  6.57212e-03
       O -1.72694e-03  6.89237e-04 -1.08687e-03
       H -2.75365e-04  5.44602e-04 -1.63870e-03
       H  8.81295e-04  3.00700e-03 -9.24342e-04
       O  1.08431e-03 -1.39232e-03  1.17907e-03
       H -5.06533e-04  2.77385e-03  5.12721e-03
       H  7.47880e-04  3.40070e-03  6.56545e-03
       O -3.80378e-04 -8.93158e-04 -7.58591e-04
       H  2.23096e-03  1.21705e-03  4.23691e-03
       H -1.22961e-03 -1.26311e-03 -1.33037e-03
       O  1.73125e-03  4.45654e-04 -8.69676e-04
       H -7.03663e-03  4.61157e-04 -1.05070e-03