192
# CELL(abcABC):   16.99620    29.43815    27.67315    90.00000    90.00000    90.00000  Step:           0  Bead:      22 positions{atomic_unit}  cell{atomic_unit}
       O -8.21943e+00 -9.93714e+00 -1.31733e+01
       H  7.30975e+00 -1.09659e+01 -1.36333e+01
       H -6.70309e+00 -1.09427e+01 -1.35003e+01
       O -3.97045e+00 -2.57760e+00 -1.31733e+01
       H -5.43740e+00 -3.60640e+00 -1.36335e+01
       H -2.45410e+00 -3.58307e+00 -1.35002e+01
       O -3.95479e+00 -1.25494e+01 -7.82537e-01
       H -3.95303e+00 -1.43463e+01 -2.27998e-01
       H -4.14654e+00 -1.25640e+01 -2.59980e+00
       O -8.20381e+00 -5.18980e+00 -7.82573e-01
       H -8.20206e+00 -6.98662e+00 -2.28079e-01
       H -8.39554e+00 -5.20430e+00 -2.59985e+00
       O -4.52774e+00 -1.21415e+01 -6.25501e+00
       H -6.04401e+00 -1.11359e+01 -6.58198e+00
       H -3.06070e+00 -1.11128e+01 -6.71509e+00
       O  8.21948e+00 -4.78197e+00 -6.25503e+00
       H  6.70316e+00 -3.77646e+00 -6.58191e+00
       H -7.30970e+00 -3.75321e+00 -6.71514e+00
       O  8.20373e+00 -9.52922e+00 -7.70081e+00
       H  8.39566e+00 -9.51468e+00 -9.51806e+00
       H  8.20220e+00 -7.73240e+00 -7.14624e+00
       O -4.54345e+00 -2.16975e+00 -7.70084e+00
       H -4.35162e+00 -2.15526e+00 -9.51812e+00
       H -4.54503e+00 -3.72917e-01 -7.14634e+00
       O -8.21943e+00 -9.93697e+00  6.63195e-01
       H  7.30977e+00 -1.09657e+01  2.03202e-01
       H -6.70308e+00 -1.09425e+01  3.36227e-01
       O -3.97044e+00 -2.57760e+00  6.63173e-01
       H -5.43747e+00 -3.60635e+00  2.03069e-01
       H -2.45410e+00 -3.58312e+00  3.36346e-01
       O -3.95472e+00 -1.25494e+01  1.30540e+01
       H -3.95309e+00 -1.43462e+01  1.36086e+01
       H -4.14653e+00 -1.25640e+01  1.12368e+01
       O -8.20380e+00 -5.18990e+00  1.30541e+01
       H -8.20202e+00 -6.98672e+00  1.36085e+01
       H -8.39553e+00 -5.20434e+00  1.12368e+01
       O -4.52771e+00 -1.21415e+01  7.58159e+00
       H -6.04402e+00 -1.11360e+01  7.25460e+00
       H -3.06070e+00 -1.11128e+01  7.12152e+00
       O  8.21944e+00 -4.78191e+00  7.58149e+00
       H  6.70312e+00 -3.77633e+00  7.25453e+00
       H -7.30974e+00 -3.75322e+00  7.12139e+00
       O  8.20378e+00 -9.52926e+00  6.13582e+00
       H  8.39564e+00 -9.51474e+00  4.31856e+00
       H  8.20221e+00 -7.73246e+00  6.69037e+00
       O -4.54344e+00 -2.16971e+00  6.13568e+00
       H -4.35161e+00 -2.15522e+00  4.31840e+00
       H -4.54506e+00 -3.72896e-01  6.69017e+00
       O -8.21947e+00  4.78210e+00 -1.31734e+01
       H  7.30974e+00  3.75335e+00 -1.36334e+01
       H -6.70314e+00  3.77651e+00 -1.35002e+01
       O -3.97046e+00  1.21415e+01 -1.31733e+01
       H -5.43745e+00  1.11127e+01 -1.36334e+01
       H -2.45410e+00  1.11360e+01 -1.35002e+01
       O -3.95479e+00  2.16971e+00 -7.82462e-01
       H -3.95303e+00  3.72884e-01 -2.27933e-01
       H -4.14646e+00  2.15509e+00 -2.59975e+00
       O -8.20376e+00  9.52923e+00 -7.82499e-01
       H -8.20200e+00  7.73238e+00 -2.27998e-01
       H -8.39546e+00  9.51472e+00 -2.59977e+00
       O -4.52774e+00  2.57749e+00 -6.25512e+00
       H -6.04400e+00  3.58312e+00 -6.58197e+00
       H -3.06066e+00  3.60618e+00 -6.71512e+00
       O  8.21949e+00  9.93715e+00 -6.25509e+00
       H  6.70318e+00  1.09426e+01 -6.58202e+00
       H -7.30970e+00  1.09659e+01 -6.71526e+00
       O  8.20366e+00  5.18988e+00 -7.70077e+00
       H  8.39552e+00  5.20437e+00 -9.51803e+00
       H  8.20217e+00  6.98669e+00 -7.14625e+00
       O -4.54337e+00  1.25494e+01 -7.70088e+00
       H -4.35159e+00  1.25639e+01 -9.51817e+00
       H -4.54500e+00  1.43462e+01 -7.14634e+00
       O -8.21952e+00  4.78190e+00  6.63226e-01
       H  7.30971e+00  3.75313e+00  2.03107e-01
       H -6.70317e+00  3.77635e+00  3.36440e-01
       O -3.97040e+00  1.21415e+01  6.63326e-01
       H -5.43738e+00  1.11127e+01  2.03185e-01
       H -2.45407e+00  1.11360e+01  3.36426e-01
       O -3.95476e+00  2.16964e+00  1.30541e+01
       H -3.95303e+00  3.72832e-01  1.36087e+01
       H -4.14651e+00  2.15510e+00  1.12369e+01
       O -8.20373e+00  9.52937e+00  1.30540e+01
       H -8.20206e+00  7.73252e+00  1.36085e+01
       H -8.39548e+00  9.51483e+00  1.12368e+01
       O -4.52770e+00  2.57756e+00  7.58140e+00
       H -6.04399e+00  3.58315e+00  7.25450e+00
       H -3.06066e+00  3.60630e+00  7.12138e+00
       O  8.21951e+00  9.93714e+00  7.58157e+00
       H  6.70319e+00  1.09427e+01  7.25463e+00
       H -7.30968e+00  1.09658e+01  7.12140e+00
       O  8.20369e+00  5.18993e+00  6.13578e+00
       H  8.39547e+00  5.20441e+00  4.31850e+00
       H  8.20212e+00  6.98674e+00  6.69030e+00
       O -4.54348e+00  1.25494e+01  6.13570e+00
       H -4.35158e+00  1.25639e+01  4.31845e+00
       H -4.54503e+00  1.43462e+01  6.69025e+00
       O  2.78573e-01 -9.93717e+00 -1.31734e+01
       H -1.18842e+00 -1.09659e+01 -1.36336e+01
       H  1.79493e+00 -1.09427e+01 -1.35002e+01
       O  4.52772e+00 -2.57751e+00 -1.31733e+01
       H  3.06068e+00 -3.60627e+00 -1.36334e+01
       H  6.04403e+00 -3.58305e+00 -1.35003e+01
       O  4.54334e+00 -1.25494e+01 -7.82465e-01
       H  4.54513e+00 -1.43463e+01 -2.27989e-01
       H  4.35168e+00 -1.25640e+01 -2.59974e+00
       O  2.94294e-01 -5.18980e+00 -7.82487e-01
       H  2.96032e-01 -6.98663e+00 -2.28053e-01
       H  1.02602e-01 -5.20427e+00 -2.59977e+00
       O  3.97042e+00 -1.21415e+01 -6.25517e+00
       H  2.45414e+00 -1.11359e+01 -6.58198e+00
       H  5.43747e+00 -1.11128e+01 -6.71526e+00
       O -2.78672e-01 -4.78194e+00 -6.25508e+00
       H -1.79498e+00 -3.77636e+00 -6.58199e+00
       H  1.18837e+00 -3.75320e+00 -6.71514e+00
       O -2.94511e-01 -9.52920e+00 -7.70081e+00
       H -1.02600e-01 -9.51466e+00 -9.51806e+00
       H -2.96005e-01 -7.73240e+00 -7.14625e+00
       O  3.95462e+00 -2.16972e+00 -7.70080e+00
       H  4.14654e+00 -2.15521e+00 -9.51804e+00
       H  3.95318e+00 -3.72879e-01 -7.14628e+00
       O  2.78541e-01 -9.93701e+00  6.63104e-01
       H -1.18842e+00 -1.09658e+01  2.03011e-01
       H  1.79493e+00 -1.09425e+01  3.36333e-01
       O  4.52773e+00 -2.57757e+00  6.63187e-01
       H  3.06068e+00 -3.60633e+00  2.03125e-01
       H  6.04402e+00 -3.58308e+00  3.36357e-01
       O  4.54332e+00 -1.25494e+01  1.30541e+01
       H  4.54518e+00 -1.43462e+01  1.36086e+01
       H  4.35169e+00 -1.25640e+01  1.12368e+01
       O  2.94281e-01 -5.18991e+00  1.30541e+01
       H  2.95995e-01 -6.98675e+00  1.36085e+01
       H  1.02570e-01 -5.20435e+00  1.12368e+01
       O  3.97044e+00 -1.21415e+01  7.58145e+00
       H  2.45413e+00 -1.11360e+01  7.25466e+00
       H  5.43745e+00 -1.11128e+01  7.12135e+00
       O -2.78601e-01 -4.78191e+00  7.58148e+00
       H -1.79495e+00 -3.77634e+00  7.25458e+00
       H  1.18839e+00 -3.75323e+00  7.12138e+00
       O -2.94501e-01 -9.52922e+00  6.13582e+00
       H -1.02637e-01 -9.51466e+00  4.31854e+00
       H -2.96013e-01 -7.73241e+00  6.69035e+00
       O  3.95462e+00 -2.16967e+00  6.13570e+00
       H  4.14656e+00 -2.15516e+00  4.31844e+00
       H  3.95315e+00 -3.72836e-01  6.69024e+00
       O  2.78636e-01  4.78206e+00 -1.31735e+01
       H -1.18832e+00  3.75329e+00 -1.36335e+01
       H  1.79499e+00  3.77651e+00 -1.35003e+01
       O  4.52773e+00  1.21415e+01 -1.31733e+01
       H  3.06066e+00  1.11127e+01 -1.36334e+01
       H  6.04403e+00  1.11360e+01 -1.35003e+01
       O  4.54332e+00  2.16970e+00 -7.82499e-01
       H  4.54510e+00  3.72872e-01 -2.27973e-01
       H  4.35161e+00  2.15513e+00 -2.59979e+00
       O  2.94188e-01  9.52923e+00 -7.82517e-01
       H  2.95976e-01  7.73239e+00 -2.28033e-01
       H  1.02486e-01  9.51470e+00 -2.59980e+00
       O  3.97041e+00  2.57752e+00 -6.25508e+00
       H  2.45414e+00  3.58307e+00 -6.58188e+00
       H  5.43747e+00  3.60626e+00 -6.71516e+00
       O -2.78677e-01  9.93714e+00 -6.25506e+00
       H -1.79497e+00  1.09427e+01 -6.58203e+00
       H  1.18838e+00  1.09659e+01 -6.71517e+00
       O -2.94451e-01  5.18990e+00 -7.70074e+00
       H -1.02475e-01  5.20442e+00 -9.51799e+00
       H -2.95971e-01  6.98671e+00 -7.14623e+00
       O  3.95453e+00  1.25494e+01 -7.70088e+00
       H  4.14650e+00  1.25638e+01 -9.51813e+00
       H  3.95314e+00  1.43462e+01 -7.14638e+00
       O  2.78666e-01  4.78190e+00  6.63181e-01
       H -1.18838e+00  3.75314e+00  2.03219e-01
       H  1.79499e+00  3.77637e+00  3.36305e-01
       O  4.52768e+00  1.21415e+01  6.63233e-01
       H  3.06065e+00  1.11127e+01  2.03130e-01
       H  6.04402e+00  1.11359e+01  3.36318e-01
       O  4.54337e+00  2.16963e+00  1.30541e+01
       H  4.54515e+00  3.72778e-01  1.36085e+01
       H  4.35165e+00  2.15511e+00  1.12368e+01
       O  2.94139e-01  9.52935e+00  1.30540e+01
       H  2.96028e-01  7.73252e+00  1.36085e+01
       H  1.02508e-01  9.51480e+00  1.12368e+01
       O  3.97044e+00  2.57752e+00  7.58146e+00
       H  2.45409e+00  3.58312e+00  7.25468e+00
       H  5.43745e+00  3.60627e+00  7.12136e+00
       O -2.78642e-01  9.93713e+00  7.58156e+00
       H -1.79498e+00  1.09426e+01  7.25459e+00
       H  1.18834e+00  1.09658e+01  7.12145e+00
       O -2.94462e-01  5.18993e+00  6.13575e+00
       H -1.02485e-01  5.20444e+00  4.31854e+00
       H -2.95928e-01  6.98677e+00  6.69031e+00
       O  3.95461e+00  1.25493e+01  6.13580e+00
       H  4.14651e+00  1.25638e+01  4.31854e+00
       H  3.95313e+00  1.43462e+01  6.69028e+00
192
# CELL(abcABC):   16.99620    29.43815    27.67315    90.00000    90.00000    90.00000  Step:          10  Bead:      22 positions{atomic_unit}  cell{atomic_unit}
       O -8.25521e+00 -9.97173e+00 -1.31737e+01
       H  7.29011e+00 -1.09916e+01 -1.35496e+01
       H -6.67241e+00 -1.09296e+01 -1.35769e+01
       O -3.96439e+00 -2.60468e+00 -1.32001e+01
       H -5.56699e+00 -3.64499e+00 -1.36106e+01
       H -2.26713e+00 -3.66860e+00 -1.34479e+01
       O -3.89783e+00 -1.25197e+01 -7.87449e-01
       H -3.85013e+00 -1.42344e+01 -2.13860e-01
       H -4.20974e+00 -1.26082e+01 -2.53220e+00
       O -8.19403e+00 -5.20694e+00 -7.44308e-01
       H -8.18596e+00 -6.89134e+00 -2.63657e-01
       H -8.28821e+00 -5.16013e+00 -2.56108e+00
       O -4.51014e+00 -1.21746e+01 -6.29119e+00
       H -5.98679e+00 -1.10469e+01 -6.87502e+00
       H -3.00078e+00 -1.11564e+01 -6.58416e+00
       O  8.22981e+00 -4.78063e+00 -6.28888e+00
       H  6.73163e+00 -3.73213e+00 -6.56886e+00
       H -7.21153e+00 -3.74721e+00 -6.70253e+00
       O  8.16622e+00 -9.50692e+00 -7.70574e+00
       H  8.46584e+00 -9.64586e+00 -9.52788e+00
       H  8.04030e+00 -7.77995e+00 -7.12368e+00
       O -4.55631e+00 -2.17069e+00 -7.68695e+00
       H -4.28892e+00 -1.98898e+00 -9.51684e+00
       H -4.62616e+00 -3.15410e-01 -7.18895e+00
       O -8.19468e+00 -9.93597e+00  6.80271e-01
       H  7.32867e+00 -1.10679e+01  9.96267e-02
       H -6.89348e+00 -1.08414e+01  3.35728e-01
       O -3.93900e+00 -2.55251e+00  6.65312e-01
       H -5.34128e+00 -3.73388e+00  2.89816e-01
       H -2.50544e+00 -3.65608e+00  4.60655e-01
       O -3.98529e+00 -1.25416e+01  1.30410e+01
       H -3.98855e+00 -1.44372e+01  1.36076e+01
       H -4.06763e+00 -1.26608e+01  1.13517e+01
       O -8.22699e+00 -5.14126e+00  1.30964e+01
       H -8.05465e+00 -7.14978e+00  1.34757e+01
       H -8.44585e+00 -5.18447e+00  1.11528e+01
       O -4.54053e+00 -1.21580e+01  7.55257e+00
       H -6.13613e+00 -1.11296e+01  7.08005e+00
       H -3.24951e+00 -1.10548e+01  7.15912e+00
       O  8.20392e+00 -4.74657e+00  7.55982e+00
       H  6.71191e+00 -3.83627e+00  7.13268e+00
       H -7.36935e+00 -3.77918e+00  6.92879e+00
       O  8.19829e+00 -9.56773e+00  6.12285e+00
       H  8.47134e+00 -9.46636e+00  4.40299e+00
       H  8.32274e+00 -7.78734e+00  6.69786e+00
       O -4.49169e+00 -2.17968e+00  6.13208e+00
       H -4.26078e+00 -2.27858e+00  4.33160e+00
       H -4.48611e+00 -3.44183e-01  6.76269e+00
       O -8.22825e+00  4.75772e+00 -1.32232e+01
       H  7.13669e+00  3.66306e+00 -1.35635e+01
       H -6.70669e+00  3.51619e+00 -1.35377e+01
       O -3.96975e+00  1.21595e+01 -1.31491e+01
       H -5.53085e+00  1.11771e+01 -1.34982e+01
       H -2.44143e+00  1.11758e+01 -1.34336e+01
       O -3.92708e+00  2.18318e+00 -8.04427e-01
       H -3.88028e+00  3.52014e-01 -2.95110e-01
       H -4.07998e+00  2.20566e+00 -2.45121e+00
       O -8.18562e+00  9.47494e+00 -7.82086e-01
       H -8.27079e+00  7.78742e+00 -1.59748e-01
       H -8.42458e+00  9.43397e+00 -2.71029e+00
       O -4.57351e+00  2.61195e+00 -6.26988e+00
       H -5.92515e+00  3.45797e+00 -6.57231e+00
       H -3.10337e+00  3.71439e+00 -6.78883e+00
       O  8.20999e+00  9.90708e+00 -6.26807e+00
       H  6.72209e+00  1.10620e+01 -6.47513e+00
       H -7.24209e+00  1.08437e+01 -6.87711e+00
       O  8.23207e+00  5.18190e+00 -7.66836e+00
       H  8.34121e+00  5.21486e+00 -9.60433e+00
       H  8.24305e+00  6.84908e+00 -6.91251e+00
       O -4.52298e+00  1.25324e+01 -7.71466e+00
       H -4.44320e+00  1.25234e+01 -9.42787e+00
       H -4.68209e+00  1.45037e+01 -7.04572e+00
       O -8.19781e+00  4.80787e+00  6.69058e-01
       H  7.18012e+00  3.65529e+00  2.28884e-01
       H -6.63495e+00  3.65684e+00  3.19003e-01
       O -3.96077e+00  1.21298e+01  6.33613e-01
       H -5.52079e+00  1.10534e+01  2.50437e-01
       H -2.36872e+00  1.11921e+01  3.30922e-01
       O -3.93887e+00  2.19161e+00  1.30290e+01
       H -3.88087e+00  1.83151e-01  1.35067e+01
       H -4.23151e+00  2.18743e+00  1.11774e+01
       O -8.23323e+00  9.55406e+00  1.30882e+01
       H -8.39433e+00  7.72633e+00  1.36209e+01
       H -8.42625e+00  9.47573e+00  1.12984e+01
       O -4.49477e+00  2.57116e+00  7.58128e+00
       H -6.17134e+00  3.54849e+00  7.18893e+00
       H -3.12815e+00  3.61716e+00  7.08410e+00
       O  8.19783e+00  9.98569e+00  7.58738e+00
       H  6.64778e+00  1.11248e+01  7.28780e+00
       H -7.32616e+00  1.11994e+01  7.10200e+00
       O  8.18840e+00  5.16852e+00  6.17070e+00
       H  8.35443e+00  5.27919e+00  4.42062e+00
       H  8.06678e+00  6.99849e+00  6.68020e+00
       O -4.53233e+00  1.25560e+01  6.15867e+00
       H -4.44227e+00  1.24291e+01  4.43877e+00
       H -4.53440e+00  1.43190e+01  6.50660e+00
       O  2.61261e-01 -9.89601e+00 -1.31947e+01
       H -1.40105e+00 -1.09163e+01 -1.35660e+01
       H  1.77017e+00 -1.09070e+01 -1.34933e+01
       O  4.52517e+00 -2.59248e+00 -1.31874e+01
       H  3.24528e+00 -3.61926e+00 -1.38674e+01
       H  5.95575e+00 -3.59132e+00 -1.34896e+01
       O  4.55122e+00 -1.25472e+01 -8.19154e-01
       H  4.45349e+00 -1.43239e+01 -3.60227e-01
       H  4.23870e+00 -1.24276e+01 -2.72584e+00
       O  2.87246e-01 -5.19925e+00 -7.78629e-01
       H  3.16114e-01 -7.04083e+00 -3.03817e-01
       H  5.34378e-02 -5.02483e+00 -2.58672e+00
       O  3.95097e+00 -1.21017e+01 -6.25385e+00
       H  2.48520e+00 -1.11297e+01 -6.67385e+00
       H  5.43392e+00 -1.10605e+01 -6.75220e+00
       O -2.95832e-01 -4.77118e+00 -6.27994e+00
       H -1.75124e+00 -3.69557e+00 -6.57519e+00
       H  1.25741e+00 -3.60957e+00 -6.91508e+00
       O -2.66470e-01 -9.51677e+00 -7.72969e+00
       H -1.71945e-01 -9.37326e+00 -9.56960e+00
       H -2.66883e-01 -7.64030e+00 -7.29874e+00
       O  3.94128e+00 -2.17086e+00 -7.71137e+00
       H  4.13268e+00 -2.15355e+00 -9.55784e+00
       H  4.03212e+00 -3.41561e-01 -7.13841e+00
       O  2.94962e-01 -9.91014e+00  6.51518e-01
       H -1.06330e+00 -1.08611e+01  3.51294e-02
       H  1.76761e+00 -1.10280e+01  4.41285e-01
       O  4.55624e+00 -2.59410e+00  6.20005e-01
       H  3.08382e+00 -3.73524e+00  2.79232e-02
       H  6.06606e+00 -3.67451e+00  4.85362e-01
       O  4.57880e+00 -1.25784e+01  1.30616e+01
       H  4.48827e+00 -1.44059e+01  1.36072e+01
       H  4.32065e+00 -1.26857e+01  1.12479e+01
       O  3.13579e-01 -5.19178e+00  1.30473e+01
       H  2.83777e-01 -6.95891e+00  1.34798e+01
       H  2.08435e-01 -5.28190e+00  1.11893e+01
       O  3.96626e+00 -1.21186e+01  7.57228e+00
       H  2.46904e+00 -1.11301e+01  7.29056e+00
       H  5.34725e+00 -1.11050e+01  7.19756e+00
       O -2.67845e-01 -4.76287e+00  7.62853e+00
       H -1.82047e+00 -3.83785e+00  7.13600e+00
       H  1.06268e+00 -3.91264e+00  7.33724e+00
       O -2.72535e-01 -9.57246e+00  6.10152e+00
       H -7.30420e-02 -9.50852e+00  4.33635e+00
       H -4.07906e-01 -7.75385e+00  6.69895e+00
       O  3.91544e+00 -2.13939e+00  6.11951e+00
       H  4.24949e+00 -2.18508e+00  4.18605e+00
       H  3.97106e+00 -3.44709e-01  6.77670e+00
       O  2.87306e-01  4.79678e+00 -1.31642e+01
       H -1.26405e+00  3.71106e+00 -1.37412e+01
       H  1.60578e+00  3.80401e+00 -1.35208e+01
       O  4.53971e+00  1.21206e+01 -1.31767e+01
       H  2.96673e+00  1.09892e+01 -1.35833e+01
       H  6.10217e+00  1.10974e+01 -1.33959e+01
       O  4.55025e+00  2.18269e+00 -7.96668e-01
       H  4.54453e+00  3.29326e-01 -3.70910e-01
       H  4.29832e+00  2.18944e+00 -2.47486e+00
       O  2.52377e-01  9.54574e+00 -7.55777e-01
       H  2.78759e-01  7.55656e+00 -2.37303e-01
       H  2.80963e-01  9.47055e+00 -2.55553e+00
       O  3.96870e+00  2.56599e+00 -6.23588e+00
       H  2.48499e+00  3.68785e+00 -6.65869e+00
       H  5.47266e+00  3.52202e+00 -6.72511e+00
       O -2.62951e-01  9.93894e+00 -6.25215e+00
       H -1.70363e+00  1.08849e+01 -6.40696e+00
       H  1.26980e+00  1.09997e+01 -6.63273e+00
       O -3.42469e-01  5.17485e+00 -7.66548e+00
       H -1.83836e-01  5.28987e+00 -9.50356e+00
       H -2.59399e-01  6.95181e+00 -7.10392e+00
       O  3.94621e+00  1.25567e+01 -7.71967e+00
       H  4.32076e+00  1.26023e+01 -9.47597e+00
       H  3.93007e+00  1.43761e+01 -7.25510e+00
       O  2.86387e-01  4.78993e+00  6.58979e-01
       H -1.12773e+00  3.87252e+00  1.95097e-01
       H  1.67422e+00  3.68137e+00  4.62237e-01
       O  4.48638e+00  1.21234e+01  6.09565e-01
       H  2.96154e+00  1.11163e+01  1.34227e-01
       H  6.27759e+00  1.11651e+01  2.48072e-01
       O  4.52194e+00  2.18250e+00  1.30656e+01
       H  4.63912e+00  3.82411e-01  1.35915e+01
       H  4.43586e+00  2.17024e+00  1.12330e+01
       O  2.92599e-01  9.58690e+00  1.30294e+01
       H  3.65342e-01  7.65311e+00  1.37014e+01
       H  1.84562e-01  9.61503e+00  1.13851e+01
       O  3.94947e+00  2.58669e+00  7.59751e+00
       H  2.44619e+00  3.60068e+00  7.17734e+00
       H  5.55150e+00  3.48305e+00  7.10960e+00
       O -3.01747e-01  9.93052e+00  7.61545e+00
       H -1.91035e+00  1.10844e+01  7.23577e+00
       H  1.20258e+00  1.09890e+01  7.14701e+00
       O -2.37373e-01  5.21234e+00  6.16958e+00
       H -2.08685e-02  5.34806e+00  4.20606e+00
       H -2.14936e-01  6.93044e+00  6.55610e+00
       O  3.93679e+00  1.25628e+01  6.12252e+00
       H  4.13089e+00  1.26631e+01  4.30430e+00
       H  3.94194e+00  1.43307e+01  6.62108e+00
192
# CELL(abcABC):   16.99620    29.43815    27.67315    90.00000    90.00000    90.00000  Step:          20  Bead:      22 positions{atomic_unit}  cell{atomic_unit}
       O -8.26056e+00 -9.97947e+00 -1.31387e+01
       H  7.42489e+00 -1.09687e+01 -1.33969e+01
       H -6.52563e+00 -1.07248e+01 -1.35758e+01
       O -3.93249e+00 -2.58295e+00 -1.31643e+01
       H -5.55954e+00 -3.76849e+00 -1.34302e+01
       H -2.28084e+00 -3.67584e+00 -1.36585e+01
       O -3.88729e+00 -1.25007e+01 -7.84118e-01
       H -3.77807e+00 -1.41088e+01 -3.69158e-01
       H -4.06756e+00 -1.26620e+01 -2.52116e+00
       O -8.15538e+00 -5.23392e+00 -7.16925e-01
       H -8.22206e+00 -6.75025e+00 -1.28748e-01
       H -8.57011e+00 -5.10975e+00 -2.46930e+00
       O -4.51964e+00 -1.21788e+01 -6.28309e+00
       H -6.03333e+00 -1.09541e+01 -6.98821e+00
       H -3.02004e+00 -1.11835e+01 -6.68864e+00
       O  8.25171e+00 -4.75739e+00 -6.32209e+00
       H  6.79867e+00 -3.85933e+00 -6.53563e+00
       H -7.18410e+00 -3.80019e+00 -6.85915e+00
       O  8.16066e+00 -9.46468e+00 -7.72315e+00
       H  8.30255e+00 -9.55070e+00 -9.59897e+00
       H  8.05291e+00 -7.80031e+00 -7.13768e+00
       O -4.53574e+00 -2.16105e+00 -7.70931e+00
       H -4.05892e+00 -2.10318e+00 -9.28945e+00
       H -4.54220e+00 -3.10764e-01 -7.24829e+00
       O -8.24290e+00 -9.91669e+00  6.45071e-01
       H  7.37820e+00 -1.12190e+01  1.91812e-01
       H -7.07967e+00 -1.10069e+01  2.47798e-01
       O -3.91957e+00 -2.48610e+00  6.81865e-01
       H -5.27841e+00 -3.80999e+00  3.62872e-01
       H -2.67000e+00 -3.68505e+00  3.39798e-01
       O -3.96546e+00 -1.25389e+01  1.30348e+01
       H -3.96579e+00 -1.43901e+01  1.37607e+01
       H -4.07067e+00 -1.26967e+01  1.12785e+01
       O -8.24165e+00 -5.11446e+00  1.30971e+01
       H -7.94972e+00 -7.17147e+00  1.33405e+01
       H -8.36379e+00 -5.10187e+00  1.09977e+01
       O -4.54056e+00 -1.21506e+01  7.57339e+00
       H -6.18154e+00 -1.11808e+01  7.14607e+00
       H -3.32489e+00 -1.09440e+01  7.13110e+00
       O  8.18483e+00 -4.73840e+00  7.54550e+00
       H  6.59772e+00 -3.91310e+00  7.16254e+00
       H -7.37183e+00 -3.85419e+00  6.96900e+00
       O  8.18321e+00 -9.53448e+00  6.13802e+00
       H  8.27475e+00 -9.30954e+00  4.29133e+00
       H  8.40299e+00 -7.82719e+00  6.77776e+00
       O -4.48096e+00 -2.12184e+00  6.13497e+00
       H -4.34490e+00 -2.33565e+00  4.48732e+00
       H -4.67635e+00 -3.16335e-01  6.56734e+00
       O -8.22061e+00  4.79000e+00 -1.32496e+01
       H  7.10265e+00  3.61675e+00 -1.35257e+01
       H -6.86331e+00  3.40219e+00 -1.35893e+01
       O -4.01398e+00  1.22017e+01 -1.31668e+01
       H -5.57650e+00  1.12432e+01 -1.35292e+01
       H -2.38387e+00  1.11383e+01 -1.35153e+01
       O -3.88678e+00  2.18216e+00 -8.37465e-01
       H -3.83183e+00  3.83453e-01 -2.56033e-01
       H -4.17037e+00  2.19622e+00 -2.44718e+00
       O -8.23407e+00  9.43984e+00 -7.62002e-01
       H -8.26695e+00  7.89247e+00 -1.62024e-01
       H -8.42819e+00  9.58783e+00 -2.49435e+00
       O -4.53272e+00  2.62485e+00 -6.29174e+00
       H -5.95333e+00  3.40103e+00 -6.49653e+00
       H -3.12870e+00  3.64429e+00 -6.75986e+00
       O  8.16421e+00  9.88036e+00 -6.28362e+00
       H  6.67222e+00  1.09786e+01 -6.60636e+00
       H -7.08690e+00  1.09606e+01 -6.84975e+00
       O  8.23943e+00  5.17637e+00 -7.66119e+00
       H  8.42597e+00  5.22335e+00 -9.67528e+00
       H  8.28391e+00  6.94879e+00 -6.62181e+00
       O -4.52964e+00  1.25635e+01 -7.73207e+00
       H -4.38623e+00  1.24992e+01 -9.50251e+00
       H -4.72036e+00  1.43629e+01 -6.95527e+00
       O -8.21598e+00  4.77257e+00  6.58531e-01
       H  7.24377e+00  3.67562e+00  2.30092e-01
       H -6.67142e+00  3.47756e+00  2.96500e-01
       O -3.95211e+00  1.21280e+01  6.41230e-01
       H -5.46992e+00  1.10111e+01  3.48906e-01
       H -2.43144e+00  1.10849e+01  3.21602e-01
       O -3.96072e+00  2.18511e+00  1.30132e+01
       H -3.88002e+00  1.08121e-01  1.36037e+01
       H -4.13899e+00  2.15186e+00  1.11073e+01
       O -8.22533e+00  9.51129e+00  1.30724e+01
       H -8.39317e+00  7.72365e+00  1.35343e+01
       H -8.35088e+00  9.41908e+00  1.11897e+01
       O -4.47298e+00  2.57518e+00  7.60298e+00
       H -6.35118e+00  3.60059e+00  7.28618e+00
       H -3.16177e+00  3.65173e+00  6.99646e+00
       O  8.19058e+00  1.00034e+01  7.58743e+00
       H  6.58414e+00  1.10280e+01  7.01712e+00
       H -7.30754e+00  1.10755e+01  7.21690e+00
       O  8.20173e+00  5.13750e+00  6.19398e+00
       H  8.39838e+00  5.33701e+00  4.39547e+00
       H  8.02989e+00  6.85932e+00  6.70869e+00
       O -4.55451e+00  1.25766e+01  6.16217e+00
       H -4.49589e+00  1.23335e+01  4.36315e+00
       H -4.42013e+00  1.43045e+01  6.43817e+00
       O  2.85109e-01 -9.87152e+00 -1.32221e+01
       H -1.42029e+00 -1.07943e+01 -1.34684e+01
       H  1.63067e+00 -1.09400e+01 -1.33665e+01
       O  4.52481e+00 -2.59047e+00 -1.31792e+01
       H  3.27173e+00 -3.51663e+00 -1.39164e+01
       H  5.95463e+00 -3.63559e+00 -1.35605e+01
       O  4.57906e+00 -1.25794e+01 -8.47451e-01
       H  4.35903e+00 -1.42069e+01 -3.30553e-01
       H  4.29527e+00 -1.23130e+01 -2.69708e+00
       O  2.89192e-01 -5.19366e+00 -7.85274e-01
       H  4.29858e-01 -6.95360e+00 -2.08888e-01
       H  2.88417e-02 -4.99740e+00 -2.63882e+00
       O  3.94380e+00 -1.21362e+01 -6.25945e+00
       H  2.43631e+00 -1.10693e+01 -6.61282e+00
       H  5.43412e+00 -1.09527e+01 -6.58430e+00
       O -2.68878e-01 -4.76927e+00 -6.30017e+00
       H -1.82515e+00 -3.78920e+00 -6.49415e+00
       H  1.14318e+00 -3.67524e+00 -6.85512e+00
       O -2.49691e-01 -9.49838e+00 -7.71049e+00
       H -1.27090e-01 -9.28624e+00 -9.54596e+00
       H -1.82344e-01 -7.53669e+00 -7.39259e+00
       O  3.95473e+00 -2.19787e+00 -7.70474e+00
       H  4.18817e+00 -2.18662e+00 -9.48051e+00
       H  3.94138e+00 -2.45347e-01 -7.13376e+00
       O  2.97270e-01 -9.93135e+00  5.99985e-01
       H -1.08111e+00 -1.08577e+01 -4.09360e-02
       H  1.62802e+00 -1.09580e+01  5.00207e-01
       O  4.56151e+00 -2.61043e+00  6.29300e-01
       H  3.20101e+00 -3.75234e+00 -3.33725e-02
       H  6.09256e+00 -3.74075e+00  5.11101e-01
       O  4.56653e+00 -1.25850e+01  1.30795e+01
       H  4.42133e+00 -1.43523e+01  1.33675e+01
       H  4.06450e+00 -1.26153e+01  1.11470e+01
       O  3.25377e-01 -5.23893e+00  1.30856e+01
       H  3.21802e-01 -7.09388e+00  1.36185e+01
       H  3.20001e-01 -5.25663e+00  1.11066e+01
       O  3.89209e+00 -1.21049e+01  7.58380e+00
       H  2.40118e+00 -1.10992e+01  7.22859e+00
       H  5.46155e+00 -1.10317e+01  7.31485e+00
       O -2.73338e-01 -4.77507e+00  7.61371e+00
       H -1.90710e+00 -3.70813e+00  7.08640e+00
       H  1.16912e+00 -3.86362e+00  7.26622e+00
       O -2.70450e-01 -9.60276e+00  6.11664e+00
       H -3.52727e-02 -9.45383e+00  4.34096e+00
       H -4.23327e-01 -7.77537e+00  6.75473e+00
       O  3.92029e+00 -2.14126e+00  6.12222e+00
       H  4.30435e+00 -2.41216e+00  4.02427e+00
       H  3.92705e+00 -2.88939e-01  6.79418e+00
       O  2.79037e-01  4.79586e+00 -1.31470e+01
       H -1.28731e+00  3.75703e+00 -1.38785e+01
       H  1.67576e+00  3.86847e+00 -1.36094e+01
       O  4.50883e+00  1.21564e+01 -1.31601e+01
       H  2.97972e+00  1.09090e+01 -1.35602e+01
       H  6.20303e+00  1.11214e+01 -1.33653e+01
       O  4.58613e+00  2.17001e+00 -7.33223e-01
       H  4.50254e+00  3.65380e-01 -3.84334e-01
       H  4.32950e+00  2.30172e+00 -2.40102e+00
       O  2.14722e-01  9.53292e+00 -7.49262e-01
       H  3.94190e-01  7.61364e+00 -2.39176e-01
       H  4.07117e-01  9.38672e+00 -2.58915e+00
       O  3.94413e+00  2.57806e+00 -6.19711e+00
       H  2.40880e+00  3.59998e+00 -6.95163e+00
       H  5.47290e+00  3.39748e+00 -6.90377e+00
       O -2.41189e-01  9.93039e+00 -6.29784e+00
       H -1.74903e+00  1.09095e+01 -6.30754e+00
       H  1.16895e+00  1.11258e+01 -6.52481e+00
       O -3.57820e-01  5.18593e+00 -7.65026e+00
       H -1.81133e-01  5.44003e+00 -9.46671e+00
       H -2.87547e-01  7.10967e+00 -7.00717e+00
       O  3.95403e+00  1.25497e+01 -7.73417e+00
       H  4.45379e+00  1.26947e+01 -9.65585e+00
       H  3.97740e+00  1.43594e+01 -7.15018e+00
       O  2.65763e-01  4.80862e+00  6.76733e-01
       H -1.19966e+00  3.99155e+00  2.38138e-01
       H  1.76498e+00  3.64254e+00  5.23700e-01
       O  4.48452e+00  1.21289e+01  6.36363e-01
       H  2.95512e+00  1.11698e+01  2.31507e-01
       H  6.30110e+00  1.13281e+01  1.98305e-01
       O  4.52167e+00  2.20605e+00  1.30643e+01
       H  4.73067e+00  2.63246e-01  1.35101e+01
       H  4.38588e+00  2.31694e+00  1.11598e+01
       O  3.07361e-01  9.58481e+00  1.30301e+01
       H  4.07896e-01  7.67585e+00  1.37295e+01
       H  1.61117e-01  9.58969e+00  1.13310e+01
       O  3.99492e+00  2.60436e+00  7.61694e+00
       H  2.47175e+00  3.49831e+00  7.33507e+00
       H  5.46974e+00  3.46006e+00  7.03217e+00
       O -3.70082e-01  9.92490e+00  7.62074e+00
       H -1.81437e+00  1.10588e+01  7.32923e+00
       H  1.18651e+00  1.08173e+01  7.24789e+00
       O -2.36823e-01  5.25210e+00  6.16564e+00
       H -1.97574e-01  5.35144e+00  4.28672e+00
       H -1.02533e-01  6.89056e+00  6.49405e+00
       O  3.91831e+00  1.25508e+01  6.11053e+00
       H  4.07568e+00  1.26834e+01  4.23710e+00
       H  3.78517e+00  1.41646e+01  6.59544e+00
192
# CELL(abcABC):   16.99620    29.43815    27.67315    90.00000    90.00000    90.00000  Step:          30  Bead:      22 positions{atomic_unit}  cell{atomic_unit}
       O -8.20512e+00 -9.97764e+00 -1.31013e+01
       H  7.28347e+00 -1.09659e+01 -1.33728e+01
       H -6.56592e+00 -1.07349e+01 -1.35214e+01
       O -3.93259e+00 -2.54184e+00 -1.31581e+01
       H -5.44628e+00 -3.82885e+00 -1.36143e+01
       H -2.17909e+00 -3.60153e+00 -1.36797e+01
       O -3.92122e+00 -1.24999e+01 -7.52434e-01
       H -3.78633e+00 -1.42249e+01 -3.36111e-01
       H -4.19395e+00 -1.26546e+01 -2.54530e+00
       O -8.20588e+00 -5.22707e+00 -7.29671e-01
       H -8.36371e+00 -6.96139e+00 -1.13235e-01
       H -8.82239e+00 -5.16242e+00 -2.46868e+00
       O -4.55626e+00 -1.21246e+01 -6.26524e+00
       H -5.98036e+00 -1.10279e+01 -7.19473e+00
       H -2.85691e+00 -1.11599e+01 -6.62468e+00
       O  8.27680e+00 -4.71437e+00 -6.34459e+00
       H  6.66266e+00 -3.84687e+00 -6.70258e+00
       H -7.26436e+00 -3.76521e+00 -6.84787e+00
       O  8.14488e+00 -9.48739e+00 -7.71444e+00
       H  8.30553e+00 -9.49531e+00 -9.58510e+00
       H  7.84834e+00 -7.88236e+00 -6.98069e+00
       O -4.50999e+00 -2.16286e+00 -7.68922e+00
       H -4.07084e+00 -2.19467e+00 -9.28045e+00
       H -4.51470e+00 -3.75977e-01 -7.30567e+00
       O -8.26613e+00 -9.91112e+00  6.68208e-01
       H  7.47514e+00 -1.13221e+01  2.22562e-01
       H -7.10485e+00 -1.09338e+01  9.76052e-02
       O -3.90997e+00 -2.47155e+00  6.80304e-01
       H -5.19954e+00 -3.90940e+00  2.93798e-01
       H -2.62051e+00 -3.68285e+00  2.26047e-01
       O -3.94314e+00 -1.25663e+01  1.30628e+01
       H -4.14794e+00 -1.42479e+01  1.37882e+01
       H -4.04075e+00 -1.26777e+01  1.13745e+01
       O -8.22080e+00 -5.12719e+00  1.30764e+01
       H -8.03275e+00 -7.13055e+00  1.34666e+01