192
# CELL(abcABC):   16.99620    29.43815    27.67315    90.00000    90.00000    90.00000  Step:           0  Bead:      29 velocities{atomic_unit}  cell{atomic_unit}
       O -5.81117e-06  1.60473e-03  8.78560e-04
       H -4.25277e-04  7.23500e-04  3.90892e-03
       H -3.46088e-03  1.63654e-03  1.60191e-03
       O  1.63644e-03  1.64189e-04 -3.89477e-04
       H  4.40978e-03 -8.02817e-03  3.79807e-04
       H -6.66738e-04 -9.58729e-04  2.27557e-03
       O -2.37764e-04 -7.34269e-04  7.75539e-04
       H  7.76465e-03  5.16780e-03 -2.22201e-03
       H  4.47180e-03  5.16295e-03  3.01256e-03
       O -3.13450e-03  1.13068e-04 -4.81357e-05
       H  2.63931e-03  2.69307e-03  2.18930e-04
       H -9.97843e-04 -2.90833e-03  3.23965e-03
       O -8.24348e-04  3.37056e-04  8.68799e-04
       H -3.67742e-03  1.38973e-03 -5.30363e-04
       H  1.60273e-03 -5.67395e-03 -9.12632e-03
       O -9.91226e-05  9.89305e-04  6.13533e-04
       H  3.25075e-03 -5.46286e-04  1.78059e-03
       H -7.39728e-04 -4.92216e-03 -4.13319e-03
       O -4.45643e-04 -2.47062e-04  3.43353e-04
       H  2.90287e-03 -3.71433e-03 -1.94305e-03
       H  2.78462e-03  1.79722e-03 -1.27328e-03
       O -2.63930e-03  7.45402e-04 -6.81939e-04
       H -5.76100e-04 -1.18062e-03  5.89861e-03
       H -3.63696e-03  1.43609e-03  5.33133e-03
       O  2.44736e-04  1.88493e-03 -1.64891e-03
       H -2.24633e-03 -1.20792e-03  2.08051e-03
       H  2.83670e-03 -1.58176e-04  8.47628e-03
       O  9.33225e-04 -5.87960e-04  9.02308e-04
       H -1.57733e-03 -1.16352e-03 -2.58924e-03
       H  6.70981e-04  7.03144e-04 -7.32831e-04
       O -3.51484e-05  1.00685e-03 -2.67577e-04
       H -1.14458e-03 -2.37475e-03  3.06286e-03
       H -6.22322e-03 -5.03436e-03  5.14169e-03
       O -1.91439e-03 -1.11382e-03  4.24795e-04
       H  3.65021e-03  1.34694e-03  5.09154e-03
       H -3.36014e-03 -2.09823e-03  5.21320e-03
       O  9.87777e-04  3.49463e-05 -1.77389e-04
       H -2.52702e-03  2.20853e-03 -2.00530e-03
       H  2.38326e-03 -2.00621e-03  8.29460e-03
       O  2.25034e-03  1.02635e-03  1.26027e-03
       H -3.98934e-03  1.76194e-03  8.19038e-03
       H  3.17204e-03 -2.97203e-04 -1.93214e-03
       O  5.12227e-04  6.81969e-04 -3.74637e-04
       H -1.08674e-02  9.52732e-04 -4.12782e-03
       H -3.88718e-03 -1.86445e-03  7.94804e-03
       O -4.94567e-04 -7.75416e-04  9.29335e-04
       H  2.65516e-03 -1.67105e-03 -4.33595e-03
       H  2.81609e-03  2.09426e-03 -1.37016e-03
       O -3.20879e-04 -9.45144e-04  4.12327e-04
       H -1.44443e-03 -3.04518e-03  6.67285e-03
       H  7.13048e-04 -2.04732e-04  3.18369e-03
       O  1.30155e-03  1.68887e-04 -2.26322e-03
       H -4.64682e-03 -2.83897e-03  6.22962e-03
       H -5.65509e-03 -4.82203e-03 -1.27478e-04
       O  5.81465e-04  3.41245e-04  4.92643e-04
       H -6.00085e-03  3.88357e-03 -5.98021e-04
       H  2.91799e-04  3.76846e-03 -3.12971e-03
       O -2.45169e-03 -2.64947e-04  2.21494e-04
       H -5.54309e-04 -7.75987e-04 -2.92352e-03
       H  1.68201e-03 -1.51179e-03  9.69346e-05
       O -1.95290e-03 -9.36258e-04  1.82358e-03
       H  7.64202e-04 -2.11332e-03  5.56924e-03
       H  5.51328e-04 -2.65143e-03 -3.75929e-03
       O -3.06552e-03 -9.69269e-04 -1.49270e-03
       H  1.68922e-03  1.74470e-04 -4.33978e-03
       H -4.12837e-03 -2.45182e-03  3.70178e-03
       O  1.21878e-03  5.89521e-04  1.15554e-03
       H -2.11973e-03  2.58441e-03 -1.78003e-04
       H  4.49154e-03  8.71825e-04 -2.16978e-04
       O -1.60349e-03  1.36495e-03 -1.20249e-04
       H -1.15687e-03 -2.01410e-03  6.09088e-05
       H -3.04722e-04  2.50066e-03 -3.56081e-03
       O -1.30590e-03 -5.31240e-04 -3.27831e-04
       H  1.01073e-03  1.96652e-03  5.35201e-03
       H -5.75588e-03 -1.49943e-03 -1.89621e-03
       O -1.22758e-03 -1.88617e-04 -9.92100e-05
       H  4.35374e-03 -1.44019e-03 -1.88264e-03
       H  2.45083e-03  1.81111e-05  4.60850e-03
       O -3.07543e-04 -4.91487e-04 -1.68825e-04
       H -2.06393e-03 -4.17275e-03  5.23986e-03
       H -1.60391e-03 -4.57798e-03  6.71478e-03
       O -5.95513e-05  5.48105e-04 -1.47343e-05
       H  1.53064e-03  6.54677e-04 -1.32653e-03
       H -4.03296e-03  3.02698e-03 -3.64050e-03
       O  5.19461e-04  3.48889e-04 -7.89184e-04
       H -2.26385e-04 -1.52540e-03 -5.12100e-03
       H -1.06637e-03 -9.16474e-05 -2.96324e-03
       O -3.17732e-04 -8.75326e-05 -4.91381e-04
       H  2.97621e-03 -1.27392e-03 -2.87307e-04
       H  5.37102e-05 -1.22165e-03 -4.49766e-03
       O -1.06552e-03 -3.10320e-04 -8.00236e-04
       H  2.20130e-05 -3.14014e-03 -3.52007e-03
       H  1.39310e-05 -2.90465e-03  2.01273e-03
       O  3.41872e-04  1.31993e-04 -6.73778e-04
       H -9.01017e-04  5.85025e-03  3.73601e-04
       H  9.28778e-04 -4.82553e-03 -2.99865e-03
       O  1.27863e-03  1.10878e-03 -3.50370e-04
       H  2.16333e-03 -1.51902e-04 -3.41419e-03
       H -9.70651e-04 -6.37371e-03  2.82702e-03
       O  1.32640e-04 -3.22996e-04 -9.29991e-05
       H  6.59996e-03  1.20891e-03  1.01165e-03
       H  1.50315e-04  3.92141e-03 -4.52316e-03
       O -2.80209e-04 -2.09626e-03 -6.73949e-04
       H -4.81253e-03 -1.33700e-03 -2.48674e-03
       H  6.20217e-03 -1.39329e-03  2.80682e-03
       O -1.10229e-03  8.73617e-05 -8.65135e-04
       H -7.58109e-03 -3.53333e-03  7.55288e-03
       H -3.67673e-03  7.84913e-03 -3.57630e-03
       O -2.72040e-04 -8.42510e-04  5.70525e-04
       H  6.56121e-03 -2.12087e-03 -2.02160e-03
       H -1.33194e-03 -5.65713e-03 -1.66454e-03
       O  7.39823e-05 -4.66523e-04 -2.65751e-04
       H -4.42506e-03  5.83706e-03 -2.40035e-03
       H  2.27535e-04  4.58377e-04 -3.17740e-04
       O -7.08347e-04  5.56234e-04 -1.49276e-04
       H  1.08633e-03 -2.32496e-03 -3.11005e-03
       H  6.20535e-04  8.39236e-04 -1.76643e-03
       O  2.02793e-04  4.61542e-04  1.73761e-04
       H -3.22798e-03  1.04529e-03  1.05479e-02
       H  4.57244e-03  1.42784e-03  6.22171e-03
       O  1.08609e-03  2.24454e-04 -3.66398e-04
       H -1.13498e-03  6.23185e-03  6.47402e-04
       H -6.83754e-04  2.31137e-03 -7.10887e-05
       O -3.65120e-04  1.34734e-03 -5.80575e-04
       H -1.21827e-03 -4.50109e-03 -8.26944e-04
       H  3.02060e-03 -1.01262e-02  2.40430e-03
       O  1.04717e-03  8.66293e-05  4.44202e-04
       H  5.39931e-04  2.25842e-03 -1.57334e-03
       H -7.12082e-04  1.24499e-03 -3.44300e-03
       O  9.63910e-04 -2.02710e-03  2.05118e-03
       H -8.78329e-05  3.36145e-03  2.51987e-03
       H -1.94579e-03 -5.47850e-03 -3.78405e-03
       O  6.52624e-04 -1.91865e-03  1.74389e-04
       H  6.41002e-03  2.08409e-03 -2.76389e-03
       H -4.89565e-04 -5.00410e-03 -1.19609e-03
       O -6.63600e-04  3.09336e-04  7.06140e-04
       H -1.65805e-03 -4.57376e-03 -3.80509e-03
       H -3.93950e-03 -2.88170e-03 -1.03021e-04
       O -1.15333e-03 -8.63601e-04 -7.24016e-04
       H -5.72203e-03 -5.77114e-03 -3.47785e-03
       H -3.16945e-03 -7.74008e-04  5.68393e-04
       O -7.73710e-04  1.14459e-04 -1.77595e-04
       H  1.02348e-03 -2.04690e-03  2.51086e-03
       H -1.00771e-04  2.51825e-03 -1.59664e-03
       O -1.40925e-03  9.89872e-04 -5.48271e-04
       H  3.40993e-03  3.02840e-03 -1.30802e-03
       H  9.67279e-04  2.64831e-03  1.08601e-03
       O -2.21568e-04 -8.99142e-04 -4.57206e-05
       H -1.11965e-03 -5.86077e-04 -6.92528e-03
       H  7.07013e-03  9.23236e-03 -9.89651e-04
       O -4.10798e-04  6.04965e-06  1.84305e-04
       H  4.73953e-03  1.76404e-03 -2.19550e-04
       H  9.40289e-04 -5.54343e-03  1.20998e-04
       O  1.72060e-03 -6.92696e-05  1.42123e-04
       H -2.03440e-03 -3.80866e-03  7.60759e-04
       H -1.17204e-03 -4.66508e-03 -2.33681e-03
       O -8.34265e-04 -6.55233e-04  1.11981e-03
       H  1.97071e-03  1.01510e-03  3.06604e-03
       H  1.06751e-03  7.89618e-03  5.85999e-03
       O -3.69596e-04  1.72493e-03  9.39351e-04
       H  3.53928e-03 -4.21207e-03 -1.97749e-03
       H  3.94349e-03 -1.05487e-03 -2.74590e-03
       O -6.73619e-04 -7.74563e-04 -4.28784e-04
       H  1.48304e-03  1.02624e-03 -2.89758e-03
       H -3.23299e-03  6.59309e-03 -2.57603e-03
       O  1.31364e-03 -9.96484e-04 -2.07262e-04
       H -6.78698e-04  4.21731e-04 -1.78321e-03
       H -8.42545e-04  1.86249e-03 -1.61754e-03
       O  4.68094e-04  3.89204e-04  1.95866e-03
       H  4.31190e-03 -6.36022e-03  4.41645e-04
       H  1.39843e-03  8.86188e-04  2.30159e-04
       O  7.55395e-04 -4.67327e-04  4.88965e-04
       H -1.05469e-03 -7.36342e-04  1.14201e-03
       H  8.06991e-03 -3.23454e-03  1.36106e-03
       O -9.04387e-04  2.26159e-03  2.84227e-04
       H -2.90182e-03  2.44757e-03 -2.28247e-03
       H -6.67410e-03  5.30408e-03  1.19666e-04
       O -1.75522e-03  5.76941e-04  3.91241e-04
       H -3.23033e-03 -2.53839e-04  3.81482e-03
       H  1.36521e-03 -1.93172e-03  5.02841e-03
       O  2.59818e-03 -6.11610e-04  6.65350e-04
       H -1.27651e-03  2.97022e-04  4.53507e-03
       H  1.20179e-04 -3.53719e-03  3.51259e-05
       O  7.74298e-04  5.79718e-04  2.52135e-04
       H -4.59147e-03  2.12855e-03 -1.65281e-04
       H -8.09450e-03 -1.40717e-03 -3.98312e-04
       O -1.18112e-03  3.53385e-04  1.21420e-03
       H -5.30086e-03  4.11499e-03 -2.93536e-03
       H  5.85964e-03  2.90989e-03 -1.02266e-03
       O  1.37944e-03  2.49248e-03  1.55798e-03
       H  4.99323e-03  6.60562e-04  3.23501e-03
       H  1.87960e-04 -4.78240e-03 -3.58498e-03
192
# CELL(abcABC):   16.99620    29.43815    27.67315    90.00000    90.00000    90.00000  Step:          10  Bead:      29 velocities{atomic_unit}  cell{atomic_unit}
       O  1.30612e-03 -7.58557e-04 -2.75177e-04
       H  9.30928e-03 -1.00755e-03  1.43982e-04
       H  3.72830e-03 -4.35662e-05 -7.14467e-03
       O -1.90743e-04 -1.16839e-04  2.52796e-05
       H -1.18401e-03  4.52851e-04  9.82392e-04
       H -1.42714e-03 -2.32990e-03  3.68248e-03
       O  2.01477e-04 -1.01113e-04 -9.31495e-04
       H  1.55715e-03 -1.21104e-03  6.02852e-03
       H -2.52826e-03  7.04402e-03 -2.89351e-04
       O  6.81703e-04 -9.25640e-04  7.70715e-04
       H  3.70695e-03 -1.19845e-03  3.37467e-03
       H  2.01995e-03  2.45062e-03  1.07575e-03
       O -5.92991e-04  4.83607e-04 -4.98320e-04
       H  2.94005e-03  1.80847e-03 -5.06528e-04
       H  7.74951e-04  1.34579e-03 -3.04684e-03
       O -8.57769e-04 -7.83471e-04  3.93344e-04
       H -5.27114e-03  9.14989e-03 -2.23019e-04
       H -1.89181e-03 -1.17557e-03 -6.16979e-03
       O -5.31570e-04  4.33772e-04 -5.17681e-04
       H -9.80819e-04 -4.40642e-03  3.46018e-03
       H -1.69756e-03 -7.71757e-04  5.86416e-03
       O -3.04664e-04  4.20025e-04 -2.47206e-06
       H -3.01324e-03 -6.17904e-03  4.43790e-03
       H  2.65336e-03  9.05075e-04  2.79562e-06
       O  3.42787e-04  8.18472e-05 -6.44988e-04
       H -1.68427e-03  2.36768e-03 -4.11437e-03
       H  4.08669e-03 -4.41767e-03  2.20199e-04
       O -1.33166e-03 -7.01739e-04  4.49583e-04
       H  9.86463e-04  8.23122e-04  2.52228e-03
       H -1.15685e-03 -2.83160e-03 -7.94260e-04
       O  3.45762e-04  1.25013e-03  8.94746e-05
       H -1.57421e-03  3.88420e-03 -2.37462e-03
       H -2.76969e-03  2.60814e-03 -7.71542e-04
       O -3.50551e-04  9.17356e-05 -4.92392e-04
       H -1.64090e-03 -8.75144e-03  3.28369e-03
       H -3.22458e-03  2.20160e-03 -2.29393e-03
       O -7.87299e-04  7.89864e-04 -1.85043e-03
       H -3.74451e-04 -1.13379e-03 -1.26452e-03
       H -2.04092e-03 -8.08950e-03 -7.00155e-04
       O  9.55818e-04 -2.52115e-04 -1.59078e-03
       H  1.00325e-03  5.34380e-03  1.79581e-03
       H  1.12919e-03  3.00605e-03 -6.14764e-03
       O  1.12333e-03 -7.00686e-04  1.67606e-03
       H  3.00690e-04  7.75883e-04  3.59805e-03
       H -7.78493e-04  3.65982e-03 -6.66926e-03
       O  8.39573e-04  1.26291e-04  1.17969e-04
       H -1.18972e-03  4.20253e-03 -4.64797e-05
       H -2.56602e-03 -4.15632e-03  3.28337e-03
       O -1.72906e-03  3.43988e-04 -9.37514e-04
       H -1.80433e-03 -2.55079e-04  3.63249e-03
       H  1.74273e-03  1.74985e-04 -3.03957e-03
       O -8.73276e-04 -3.76299e-04  1.56417e-03
       H  6.28556e-03 -1.17850e-03 -3.33787e-03
       H  3.11009e-03 -2.16612e-03 -4.76278e-03
       O  1.00075e-03 -1.08132e-03 -6.50396e-04
       H -3.80014e-03 -2.81169e-03  6.08847e-04
       H  3.13195e-03 -1.91349e-03 -4.19994e-04
       O -5.04890e-04 -6.90884e-05 -3.24927e-03
       H  1.17149e-02  4.55736e-03  8.76341e-05
       H -1.28445e-03  9.08399e-04 -9.20068e-03
       O -3.88677e-04  6.21704e-04 -1.07280e-04
       H  3.37341e-03  4.07993e-03  9.40426e-04
       H -5.85610e-04  8.22339e-04 -2.25571e-03
       O -6.32329e-04  8.63092e-04  5.88944e-04
       H -4.70979e-03  1.85830e-03 -1.87364e-03
       H -3.06663e-03 -4.27120e-03  2.95652e-03
       O -4.12526e-06  6.13131e-04 -2.84558e-05
       H -5.61433e-03 -2.97084e-03  2.74780e-03
       H -1.37999e-03 -5.95825e-03 -1.99672e-03
       O -1.80596e-03  1.85307e-03  1.13636e-03
       H -2.95828e-03  5.62628e-03 -2.42841e-04
       H -3.60635e-03  2.13559e-04  1.09101e-03
       O -6.37520e-04  3.88271e-04  2.88452e-04
       H -1.96240e-03 -2.25091e-04  3.67085e-04
       H -2.45367e-03  1.94522e-03 -2.65781e-03
       O -2.85423e-05  5.41679e-04 -6.45806e-04
       H -1.25579e-03 -5.21109e-03  2.37880e-03
       H -1.74071e-03 -3.12752e-03 -6.40607e-04
       O -2.22879e-04  4.13732e-05 -5.22692e-04
       H  2.75553e-03 -1.02770e-03 -1.05057e-03
       H -1.18904e-02  4.24166e-03  2.87187e-03
       O -1.00945e-03  1.57080e-04 -4.09511e-05
       H  1.12987e-03 -3.83523e-03  5.84219e-04
       H -2.29190e-03  7.72287e-04  2.10755e-03
       O  4.69642e-04  6.07940e-04 -6.84362e-04
       H  1.64590e-05  3.48160e-04  3.24892e-05
       H -9.12785e-04 -5.56810e-04 -3.07356e-03
       O -6.00230e-04  1.51516e-03 -7.16649e-04
       H  2.81287e-03  2.59619e-03 -3.83793e-03
       H  3.89105e-03  9.29280e-04 -1.78831e-03
       O  1.36938e-03 -4.47030e-04 -2.81333e-04
       H  4.69277e-03  4.16400e-03 -2.91787e-04
       H  3.60367e-04  1.27024e-03 -1.68402e-03
       O  1.25354e-03 -2.07072e-04  5.10695e-04
       H -8.08186e-04 -3.47892e-03  6.16316e-04
       H -3.83130e-04 -2.01220e-03 -3.00683e-03
       O -2.27766e-03 -4.93214e-04 -1.21884e-03
       H  4.13854e-03 -2.71309e-03  2.34725e-03
       H  1.98403e-03 -3.48419e-03  6.25170e-03
       O  1.03168e-03 -4.84826e-04  1.22121e-03
       H  4.08932e-03  9.79573e-04  1.89135e-03
       H  2.28739e-05  5.54727e-03 -9.71886e-04
       O -4.32744e-04 -1.08404e-03  6.47193e-05
       H -2.45574e-03  1.16017e-03  4.34275e-03
       H  3.35648e-03  6.25199e-05  1.35070e-03
       O  8.38428e-05  5.21976e-05  1.65755e-03
       H  9.12640e-04 -2.91267e-03  4.90137e-05
       H  5.39959e-03  1.19262e-03  3.05497e-03
       O -8.77534e-05  7.15959e-04  1.05285e-03
       H -7.68955e-03  4.17984e-03 -5.11023e-03
       H  2.47666e-03  4.75404e-03 -1.70173e-03
       O  4.68026e-04  5.49570e-04  2.29812e-04
       H  2.76590e-03 -6.10577e-03 -4.33123e-04
       H -5.67618e-04 -6.47414e-03  2.51319e-03
       O -7.53587e-04 -1.46778e-04 -2.14915e-04
       H  4.53529e-03  3.49348e-03  5.14373e-04
       H -2.78107e-03 -3.39479e-03 -5.70034e-03
       O  1.37434e-03  7.61527e-04 -8.73433e-04
       H  1.86528e-03  3.08152e-03 -9.16070e-04
       H  1.06891e-03 -2.72890e-03 -2.82997e-03
       O -4.30952e-04  1.63659e-03  9.22468e-04
       H -6.47893e-03  3.83387e-03 -7.91963e-04
       H -4.21925e-03  1.00255e-03 -9.65997e-03
       O  3.76670e-04  9.42404e-04 -2.38530e-04
       H  1.88150e-03 -2.12646e-03  9.15571e-04
       H  9.40452e-04  1.72935e-03  5.14241e-03
       O  1.69510e-03 -7.25487e-04  1.91078e-03
       H -7.22888e-06 -2.81155e-03 -2.28833e-03
       H -9.82689e-04 -1.95777e-03 -5.56242e-03
       O -7.40406e-04  1.41861e-03 -1.08828e-03
       H  8.00627e-04 -2.85616e-03 -1.82135e-03
       H -9.97053e-04  3.97687e-03  1.43380e-03
       O -6.63329e-04  1.01581e-03 -5.73461e-05
       H -8.27071e-05 -2.76498e-03 -6.89143e-03
       H -2.22276e-03  1.25439e-03 -2.74639e-03
       O -1.12370e-04  3.23195e-04 -8.67743e-04
       H -4.76698e-03 -3.86107e-03  2.48923e-03
       H  2.98076e-04  1.98077e-03 -2.69801e-05
       O -1.28868e-04  3.73046e-04 -1.18068e-03
       H -1.37522e-03 -4.95482e-03 -7.38258e-04
       H  7.51378e-04  1.80441e-03 -8.24669e-04
       O  3.10178e-04 -1.38750e-03 -4.81167e-04
       H  3.21902e-03 -3.40652e-04  2.90510e-04
       H  3.24011e-03  2.29531e-03  1.29665e-04
       O  6.17855e-04  5.70383e-04  2.65817e-04
       H  7.04424e-04  8.19418e-04  6.14567e-03
       H -3.77748e-03 -7.90671e-04 -8.57100e-04
       O  8.16508e-04 -1.45906e-03  1.13604e-03
       H -4.90186e-03 -6.59753e-03 -2.25909e-03
       H  2.86263e-03  6.49157e-03  3.41056e-03
       O -7.53717e-04 -2.40681e-04 -4.83555e-04
       H  1.14686e-02  1.49798e-03  7.02354e-04
       H -4.29720e-03  3.96306e-03 -9.01392e-04
       O -5.82878e-04 -9.20415e-04 -1.00298e-03
       H -8.99051e-04  1.45651e-03  2.45880e-03
       H  2.84888e-03  2.61648e-03  4.20424e-03
       O  1.32826e-03  1.22321e-03 -1.31498e-03
       H  3.66563e-03 -5.18363e-03  2.34533e-03
       H -6.67163e-04  1.51138e-04  2.43535e-03
       O -2.98872e-05 -4.11976e-04  8.60663e-04
       H -3.60174e-04  6.39321e-04  7.63150e-03
       H  4.06824e-03 -1.01996e-03  2.79113e-03
       O  2.86437e-04  2.02545e-04 -4.42562e-04
       H  3.76014e-03  2.47517e-03  1.48377e-03
       H -2.41629e-04  4.96740e-04  3.00546e-04
       O  4.61911e-04  5.64367e-04 -1.08028e-04
       H  3.26913e-03 -6.08144e-04  1.03631e-03
       H -6.31721e-03 -5.68914e-03 -1.49537e-03
       O -4.98178e-04 -1.24036e-03  4.30637e-04
       H -3.62037e-03  2.04963e-03  2.76819e-03
       H -3.92878e-03  4.27239e-03  1.41308e-03
       O -3.85445e-04 -1.01904e-03  1.21661e-03
       H -2.73968e-03 -1.71454e-03  6.51701e-03
       H -1.19176e-03 -7.39169e-03  1.79600e-03
       O -2.05095e-03  1.26431e-03  3.58402e-04
       H  3.22475e-03  3.65157e-03  9.89662e-03
       H -4.39888e-03  2.67818e-03 -6.15463e-04
       O -8.94571e-04 -1.70198e-04 -8.06885e-04
       H -5.19911e-04  1.91762e-03 -6.37531e-04
       H -4.51288e-03 -7.28977e-03 -2.38737e-04
       O -8.33751e-04  3.68942e-05 -6.26773e-04
       H  1.02512e-03 -1.88969e-03  1.36376e-03
       H  4.72418e-04 -1.08937e-03 -8.11173e-04
       O  1.89003e-03 -3.26674e-04  1.73473e-04
       H  3.35120e-03  3.82571e-03  2.60369e-04
       H -7.34979e-04  1.89494e-03  4.32497e-03
       O  2.90068e-04 -5.03940e-04 -1.29355e-03
       H -1.01975e-04  3.26855e-03  2.01046e-03
       H  4.84676e-03 -1.96968e-03 -5.95633e-03
       O -1.31744e-03  9.84128e-04 -4.80570e-04
       H -2.75467e-04  5.88125e-03  4.90950e-03
       H  2.96691e-03  3.63977e-03  1.88729e-03
192
# CELL(abcABC):   16.99620    29.43815    27.67315    90.00000    90.00000    90.00000  Step:          20  Bead:      29 velocities{atomic_unit}  cell{atomic_unit}
       O  1.82508e-03  3.87369e-04 -7.90103e-04
       H -8.45211e-05  1.59901e-03  1.07350e-03
       H -9.31822e-04 -6.07649e-03  3.22348e-03
       O  1.82015e-03  1.01093e-03 -4.54527e-04
       H -3.89283e-03  5.93013e-05  4.04262e-03
       H  5.36205e-03 -6.22052e-03 -3.44788e-03
       O -3.34850e-04 -3.62478e-04 -2.51752e-03
       H -1.64057e-03 -1.54830e-03  1.10059e-03
       H -1.69106e-03 -2.41108e-03 -5.42900e-03
       O -1.53242e-03 -5.60868e-04  3.16870e-04
       H -3.80483e-03  1.23926e-04 -1.35310e-03
       H -7.14866e-04 -5.17396e-04  3.40164e-03
       O -1.50529e-04 -1.81529e-05 -2.71714e-04
       H -4.57259e-04  1.84371e-03  4.47674e-04
       H -7.21836e-03 -4.91107e-04  2.40614e-03
       O -8.84154e-04 -1.59804e-03 -8.06731e-04
       H -2.02220e-03 -6.40139e-03  4.30055e-03
       H -3.38473e-03  2.30863e-03  3.08534e-03
       O  1.83895e-03  1.05116e-04 -8.86245e-04
       H  3.91699e-03 -3.38073e-04  9.98063e-03
       H  4.68972e-03 -4.33955e-03  3.59603e-03
       O -3.28832e-04 -2.34154e-04  5.10234e-05
       H  1.72503e-03  2.55148e-03 -4.37278e-03
       H  6.94361e-03 -2.85718e-05 -4.01229e-03
       O  3.68087e-04 -2.37085e-04 -7.18135e-04
       H -2.86874e-03  1.90746e-03  1.07054e-02
       H  2.24951e-03  2.62356e-03 -7.47753e-03
       O  5.53721e-04 -1.03109e-03  1.56485e-04
       H -1.42746e-03  7.57570e-04  6.32796e-04
       H -1.48768e-03 -4.88225e-03 -7.52159e-04
       O -8.04798e-04  5.63583e-05  1.38038e-03
       H -1.79063e-04  4.47242e-03  2.15864e-04
       H  3.99028e-03  2.83306e-03 -3.39925e-03
       O  2.31718e-04 -9.95410e-05  1.33932e-03
       H  1.63460e-04 -2.83412e-03 -1.55717e-03
       H -5.93270e-04 -4.65096e-03  4.03418e-03
       O -3.91336e-04  2.30758e-05  4.50129e-04
       H  3.08026e-03  1.58825e-03 -2.22544e-03
       H  2.67865e-03  2.28176e-03  1.70548e-03
       O -4.20871e-05  8.72300e-04  9.17366e-04
       H -4.77876e-03  2.86674e-03  2.94078e-03
       H -2.84498e-03 -1.93364e-03 -5.50557e-03
       O  2.13173e-04  4.82903e-05 -3.82609e-04
       H  1.67686e-03  2.60725e-03  5.57024e-04
       H  5.04479e-06 -1.02997e-04  3.99814e-03
       O  1.92208e-03 -3.60112e-04 -9.44920e-04
       H -8.83990e-04 -7.28958e-04  3.27403e-03
       H -3.11183e-03  1.12462e-03  7.07061e-03
       O  4.90558e-04 -4.12396e-04  1.25258e-03
       H -1.79638e-04 -8.59346e-04 -1.20471e-03
       H  3.04413e-03 -5.99219e-03  2.02541e-03
       O -1.11295e-03 -5.02128e-04  8.94627e-06
       H  2.36985e-03 -2.84395e-03 -3.80251e-04
       H  2.27270e-03 -4.27103e-04  3.21308e-03
       O  4.66384e-04  3.54459e-04 -8.91303e-04
       H -2.49890e-03 -2.72557e-03 -3.46206e-03
       H  4.25517e-04 -8.66609e-04 -3.54950e-03
       O -8.10507e-04 -5.33470e-04 -9.88633e-04
       H  5.51939e-03 -1.61481e-03  4.69972e-03
       H  4.78256e-03 -4.59314e-03  7.38456e-04
       O  3.51359e-04  2.24814e-03  1.41807e-04
       H  2.52689e-03  2.18046e-03 -3.27210e-03
       H -3.66038e-03 -7.76250e-03 -4.20178e-03
       O  4.82756e-04  6.85739e-04 -6.60039e-05
       H  1.32045e-03  3.07476e-03  9.52366e-04
       H  3.44790e-03 -4.68342e-03 -3.39557e-03
       O  7.87676e-05  1.67488e-03 -6.92735e-05
       H  3.60594e-03 -5.16934e-03 -5.37658e-04
       H -4.35793e-04  4.20708e-04 -3.15739e-04
       O  2.15336e-04 -3.68567e-04  1.95223e-03
       H -3.00748e-04  2.17379e-03 -4.35649e-03
       H  8.50829e-03 -8.64976e-04 -6.24599e-03
       O -7.56543e-04 -8.08090e-04 -5.56793e-04
       H -5.62802e-04 -6.67679e-04  2.21271e-03
       H  3.43526e-03 -3.49601e-03 -1.50192e-03
       O  1.00321e-03 -1.71055e-04  6.15213e-04
       H  6.68377e-04  2.35670e-03 -9.01120e-04
       H -1.78100e-03 -9.94242e-05  1.07060e-03
       O -2.03742e-04 -4.98573e-04 -1.13750e-04
       H  8.23992e-04  3.86668e-03  4.67746e-03
       H -2.63116e-03  2.39880e-03 -3.84678e-03
       O  5.53840e-04 -5.32578e-04 -7.00790e-05
       H -6.13499e-03  4.27526e-03 -2.51806e-03
       H  4.57325e-04 -2.37509e-03 -2.11557e-03
       O  9.75105e-04 -4.62831e-06 -1.04088e-03
       H -5.99695e-03 -2.48310e-03  3.75335e-03
       H  9.26518e-03  4.04084e-03  7.26360e-03
       O  8.43344e-05  1.03374e-03  1.47941e-04
       H -1.26178e-03 -1.41161e-03  2.86396e-03
       H -1.00765e-03  2.26217e-03 -1.71640e-03
       O  7.30893e-04  9.60272e-04  1.60300e-03
       H  1.57025e-03  2.14575e-04  1.60653e-03
       H  4.71054e-03 -1.68824e-03 -1.74491e-03
       O -1.40584e-03 -1.48698e-03 -1.20637e-03
       H  4.34192e-03  6.43245e-03  3.73026e-04
       H  9.41511e-04  3.30157e-03  4.98751e-04
       O  5.14806e-04  5.86235e-04 -1.07716e-03
       H  3.01779e-03  6.42300e-04  6.56103e-03
       H -4.50796e-03  5.21540e-03 -5.95204e-03
       O -7.84172e-04  1.41668e-03  1.37004e-03
       H  2.70563e-03  2.91782e-03 -6.74137e-03
       H  1.44840e-03 -3.71309e-03  1.11899e-03
       O  8.82794e-04 -1.70853e-03  1.47955e-04
       H -9.11798e-03 -1.65676e-03  3.14892e-03
       H  4.69472e-03  4.83364e-03 -4.88502e-03
       O -9.32134e-04  1.45846e-04  1.16490e-03
       H -7.05320e-04  3.38264e-04  5.75579e-03
       H -5.74037e-03 -3.00455e-03 -5.13376e-03
       O  2.47889e-04 -8.17869e-04  1.20393e-03
       H  2.01294e-04 -7.34546e-04 -2.39963e-03
       H -6.61626e-04  4.53694e-03 -3.56762e-03
       O -3.75420e-05 -1.05924e-03  1.20973e-03
       H -6.70568e-03  7.38269e-03  3.71980e-04
       H  4.92485e-03  1.53460e-03  4.42882e-03
       O  5.15044e-04 -1.71872e-04 -3.44540e-04
       H -1.00491e-05 -3.48025e-03  6.54959e-03
       H -8.39332e-03 -3.00708e-03  4.35889e-04
       O -2.84321e-04 -2.17443e-04  4.41326e-04
       H -3.14376e-03  2.43303e-03 -1.78374e-03
       H  4.59470e-03  4.45337e-03 -2.77271e-03
       O -3.89492e-04  5.56666e-04 -9.83667e-04
       H -2.56649e-03  5.90524e-03 -3.31466e-04
       H -2.37934e-03  2.77139e-03  7.43984e-03
       O  9.20357e-04  2.66440e-05  2.71003e-04
       H -1.05638e-03  2.83718e-03 -4.43232e-03
       H  1.68912e-03  1.47196e-03  7.50158e-03
       O  6.42488e-04  7.81867e-04  5.21268e-04
       H  1.19002e-04  2.05092e-03  5.18826e-03
       H  2.20006e-03  2.61806e-03  1.77034e-03
       O  1.44038e-03 -1.31092e-03 -4.11081e-04
       H  5.63911e-03 -2.58420e-03 -1.61442e-03
       H -1.98565e-03  1.49425e-03 -4.64690e-03
       O  8.33409e-04  3.45347e-04 -1.35122e-03
       H  4.86194e-04  2.66516e-03 -1.29626e-03
       H -9.69887e-03 -5.30427e-04  3.50543e-03
       O -7.93944e-05 -9.69498e-04 -4.48976e-05
       H  1.36670e-03 -2.76360e-03 -2.93400e-03
       H -2.08203e-03  6.49837e-04  1.36834e-03
       O -9.33442e-04  7.14356e-04  1.20732e-03
       H  5.66025e-04  4.63216e-03 -1.61760e-04
       H -3.79744e-03  5.23045e-03  2.93017e-03
       O -6.97023e-04  3.38894e-04 -2.01063e-03
       H -1.99430e-03 -6.27874e-03 -6.55353e-03
       H -3.94743e-04 -3.04938e-04 -3.75723e-03
       O  5.49296e-04  3.42265e-04 -1.03134e-04
       H -6.95913e-03 -2.77728e-03 -1.35290e-03
       H -2.30595e-03  7.36648e-05  2.00646e-03
       O -5.59848e-04  6.15254e-04  3.48732e-04
       H  1.51036e-03  3.53015e-03  2.14670e-04
       H  2.47258e-03 -7.59871e-03 -1.58450e-03
       O  7.82624e-04 -6.07719e-04  6.87102e-04
       H  2.32152e-03 -6.32552e-04  1.07359e-04
       H -5.55679e-03 -1.58435e-03 -2.74022e-03
       O  5.02409e-05  1.49211e-03 -2.90761e-04
       H  2.81661e-03 -3.29071e-03  6.18484e-03
       H  1.09358e-03 -1.44887e-03 -3.12747e-03
       O -1.40891e-04  2.21583e-04 -4.25959e-04
       H  4.05494e-03 -1.57104e-03 -3.06743e-03
       H -8.46856e-04 -6.52503e-03  2.24972e-03
       O  1.85982e-04  2.46432e-04  2.72717e-04
       H -2.69991e-03 -4.29404e-03  2.21225e-03
       H  6.04499e-03  7.79726e-05 -7.68652e-04
       O -5.86266e-04 -2.02075e-03  2.42952e-04
       H  3.67591e-03  1.83358e-03  3.07905e-03
       H  2.32783e-03 -2.45987e-03 -5.44614e-04
       O  5.98448e-04  1.22031e-03 -1.47655e-03
       H  2.58421e-03 -4.42549e-03 -1.75612e-03
       H  3.06505e-03  1.92072e-03  1.21910e-03
       O -3.95402e-04  3.49962e-04 -1.38742e-03
       H  3.86894e-04  8.59459e-04 -3.08032e-03
       H -2.31747e-03  3.55254e-04 -1.00715e-03
       O  1.25370e-03  3.76996e-05 -1.41837e-03
       H -1.35312e-03 -9.05189e-04 -1.96527e-03
       H  9.88083e-04  2.30344e-03  3.18267e-03
       O -5.72873e-04  2.48596e-04  2.42346e-04
       H  5.01698e-04  2.97681e-03 -6.13453e-04
       H  8.00929e-03 -5.84098e-04 -1.36123e-03
       O -5.61033e-04 -5.92035e-04 -4.32796e-04
       H  5.89842e-03 -1.12509e-03 -2.79523e-03
       H -9.41404e-04  3.59386e-03 -2.75360e-03
       O  1.20169e-03  3.49051e-05  1.62113e-03
       H -3.41924e-03  2.45748e-03  4.26041e-03
       H  7.21463e-04  2.81454e-03  2.73651e-03
       O  5.29298e-04  1.91450e-03  1.41589e-03
       H -4.55414e-03  6.44290e-04 -5.37135e-03
       H -2.22856e-03 -1.36291e-03 -4.76038e-03
       O  6.38313e-04 -7.98431e-04 -1.09718e-04
       H  1.67684e-03  1.39690e-03  2.57458e-03
       H -5.34004e-03  2.21537e-03  4.31110e-03
       O  3.12684e-04  1.77014e-03 -1.14322e-03
       H -1.05301e-02 -3.89409e-03  5.77854e-04
       H -2.48919e-03  9.49331e-04 -4.45614e-03
192
# CELL(abcABC):   16.99620    29.43815    27.67315    90.00000    90.00000    90.00000  Step:          30  Bead:      29 velocities{atomic_unit}  cell{atomic_unit}
       O -3.97867e-04 -2.82487e-04 -1.60997e-03
       H -1.29995e-03 -1.62996e-03 -7.51228e-04
       H -7.44936e-03 -3.33670e-03 -2.58502e-03
       O  1.46549e-03 -2.19700e-06  4.04463e-04
       H -6.76499e-05  2.55093e-03  3.73494e-03
       H  1.86242e-03  8.43143e-03  1.94376e-03
       O -1.03877e-03 -1.57403e-05 -1.05230e-03
       H  7.08058e-03 -1.62886e-03 -6.43235e-03
       H -5.22012e-03  3.56531e-03 -1.69854e-03
       O  6.93466e-04  1.07616e-04  1.38952e-03
       H  1.58230e-03 -8.77692e-04 -4.68700e-03
       H -6.32184e-03  6.45886e-03 -4.90633e-05
       O -4.47304e-04 -3.12330e-04 -7.91109e-04
       H  4.02509e-04  2.40057e-03 -2.71300e-03
       H -3.06643e-03  1.57428e-03  3.93197e-03
       O  3.48097e-04  9.51250e-04  4.01959e-05
       H -4.50965e-03 -4.36096e-03 -2.72946e-04
       H  2.36194e-03 -5.86964e-05 -1.13902e-03
       O  8.77270e-04  1.28831e-03 -3.36775e-04
       H -2.89711e-03 -3.81377e-03 -1.88391e-03
       H -4.78190e-03  2.72091e-04  1.74313e-03
       O  1.85440e-04 -2.46938e-05  1.28095e-05
       H  2.10257e-03  7.89214e-05 -3.17849e-03
       H -1.39133e-03  4.20372e-03  3.08527e-03
       O -4.82595e-04  2.97848e-04  1.09777e-03
       H  6.40835e-04  2.82949e-03 -3.06090e-03
       H  1.00136e-03  2.81855e-03 -6.41186e-03
       O  8.57359e-04 -4.21633e-04  1.15504e-03
       H  3.09370e-03 -2.80459e-03  1.83197e-04
       H  2.03515e-03  1.73209e-03  3.57887e-03
       O  1.57353e-04  8.93472e-04 -6.22955e-04
       H  1.02317e-03 -2.69323e-03  9.11244e-04
       H  3.75761e-03 -2.14687e-03  4.73537e-03
       O  2.64908e-04 -2.62761e-04  3.79073e-05
       H -3.62667e-03 -6.67562e-03 -5.83153e-03