192
# CELL(abcABC):   16.99620    29.43815    27.67315    90.00000    90.00000    90.00000  Step:           0  Bead:      28 positions{atomic_unit}  cell{atomic_unit}
       O -8.21943e+00 -9.93714e+00 -1.31733e+01
       H  7.30975e+00 -1.09659e+01 -1.36333e+01
       H -6.70309e+00 -1.09427e+01 -1.35003e+01
       O -3.97045e+00 -2.57760e+00 -1.31733e+01
       H -5.43740e+00 -3.60640e+00 -1.36335e+01
       H -2.45410e+00 -3.58307e+00 -1.35002e+01
       O -3.95479e+00 -1.25494e+01 -7.82537e-01
       H -3.95303e+00 -1.43463e+01 -2.27998e-01
       H -4.14654e+00 -1.25640e+01 -2.59980e+00
       O -8.20381e+00 -5.18980e+00 -7.82573e-01
       H -8.20206e+00 -6.98662e+00 -2.28079e-01
       H -8.39554e+00 -5.20430e+00 -2.59985e+00
       O -4.52774e+00 -1.21415e+01 -6.25501e+00
       H -6.04401e+00 -1.11359e+01 -6.58198e+00
       H -3.06070e+00 -1.11128e+01 -6.71509e+00
       O  8.21948e+00 -4.78197e+00 -6.25503e+00
       H  6.70316e+00 -3.77646e+00 -6.58191e+00
       H -7.30970e+00 -3.75321e+00 -6.71514e+00
       O  8.20373e+00 -9.52922e+00 -7.70081e+00
       H  8.39566e+00 -9.51468e+00 -9.51806e+00
       H  8.20220e+00 -7.73240e+00 -7.14624e+00
       O -4.54345e+00 -2.16975e+00 -7.70084e+00
       H -4.35162e+00 -2.15526e+00 -9.51812e+00
       H -4.54503e+00 -3.72917e-01 -7.14634e+00
       O -8.21943e+00 -9.93697e+00  6.63195e-01
       H  7.30977e+00 -1.09657e+01  2.03202e-01
       H -6.70308e+00 -1.09425e+01  3.36227e-01
       O -3.97044e+00 -2.57760e+00  6.63173e-01
       H -5.43747e+00 -3.60635e+00  2.03069e-01
       H -2.45410e+00 -3.58312e+00  3.36346e-01
       O -3.95472e+00 -1.25494e+01  1.30540e+01
       H -3.95309e+00 -1.43462e+01  1.36086e+01
       H -4.14653e+00 -1.25640e+01  1.12368e+01
       O -8.20380e+00 -5.18990e+00  1.30541e+01
       H -8.20202e+00 -6.98672e+00  1.36085e+01
       H -8.39553e+00 -5.20434e+00  1.12368e+01
       O -4.52771e+00 -1.21415e+01  7.58159e+00
       H -6.04402e+00 -1.11360e+01  7.25460e+00
       H -3.06070e+00 -1.11128e+01  7.12152e+00
       O  8.21944e+00 -4.78191e+00  7.58149e+00
       H  6.70312e+00 -3.77633e+00  7.25453e+00
       H -7.30974e+00 -3.75322e+00  7.12139e+00
       O  8.20378e+00 -9.52926e+00  6.13582e+00
       H  8.39564e+00 -9.51474e+00  4.31856e+00
       H  8.20221e+00 -7.73246e+00  6.69037e+00
       O -4.54344e+00 -2.16971e+00  6.13568e+00
       H -4.35161e+00 -2.15522e+00  4.31840e+00
       H -4.54506e+00 -3.72896e-01  6.69017e+00
       O -8.21947e+00  4.78210e+00 -1.31734e+01
       H  7.30974e+00  3.75335e+00 -1.36334e+01
       H -6.70314e+00  3.77651e+00 -1.35002e+01
       O -3.97046e+00  1.21415e+01 -1.31733e+01
       H -5.43745e+00  1.11127e+01 -1.36334e+01
       H -2.45410e+00  1.11360e+01 -1.35002e+01
       O -3.95479e+00  2.16971e+00 -7.82462e-01
       H -3.95303e+00  3.72884e-01 -2.27933e-01
       H -4.14646e+00  2.15509e+00 -2.59975e+00
       O -8.20376e+00  9.52923e+00 -7.82499e-01
       H -8.20200e+00  7.73238e+00 -2.27998e-01
       H -8.39546e+00  9.51472e+00 -2.59977e+00
       O -4.52774e+00  2.57749e+00 -6.25512e+00
       H -6.04400e+00  3.58312e+00 -6.58197e+00
       H -3.06066e+00  3.60618e+00 -6.71512e+00
       O  8.21949e+00  9.93715e+00 -6.25509e+00
       H  6.70318e+00  1.09426e+01 -6.58202e+00
       H -7.30970e+00  1.09659e+01 -6.71526e+00
       O  8.20366e+00  5.18988e+00 -7.70077e+00
       H  8.39552e+00  5.20437e+00 -9.51803e+00
       H  8.20217e+00  6.98669e+00 -7.14625e+00
       O -4.54337e+00  1.25494e+01 -7.70088e+00
       H -4.35159e+00  1.25639e+01 -9.51817e+00
       H -4.54500e+00  1.43462e+01 -7.14634e+00
       O -8.21952e+00  4.78190e+00  6.63226e-01
       H  7.30971e+00  3.75313e+00  2.03107e-01
       H -6.70317e+00  3.77635e+00  3.36440e-01
       O -3.97040e+00  1.21415e+01  6.63326e-01
       H -5.43738e+00  1.11127e+01  2.03185e-01
       H -2.45407e+00  1.11360e+01  3.36426e-01
       O -3.95476e+00  2.16964e+00  1.30541e+01
       H -3.95303e+00  3.72832e-01  1.36087e+01
       H -4.14651e+00  2.15510e+00  1.12369e+01
       O -8.20373e+00  9.52937e+00  1.30540e+01
       H -8.20206e+00  7.73252e+00  1.36085e+01
       H -8.39548e+00  9.51483e+00  1.12368e+01
       O -4.52770e+00  2.57756e+00  7.58140e+00
       H -6.04399e+00  3.58315e+00  7.25450e+00
       H -3.06066e+00  3.60630e+00  7.12138e+00
       O  8.21951e+00  9.93714e+00  7.58157e+00
       H  6.70319e+00  1.09427e+01  7.25463e+00
       H -7.30968e+00  1.09658e+01  7.12140e+00
       O  8.20369e+00  5.18993e+00  6.13578e+00
       H  8.39547e+00  5.20441e+00  4.31850e+00
       H  8.20212e+00  6.98674e+00  6.69030e+00
       O -4.54348e+00  1.25494e+01  6.13570e+00
       H -4.35158e+00  1.25639e+01  4.31845e+00
       H -4.54503e+00  1.43462e+01  6.69025e+00
       O  2.78573e-01 -9.93717e+00 -1.31734e+01
       H -1.18842e+00 -1.09659e+01 -1.36336e+01
       H  1.79493e+00 -1.09427e+01 -1.35002e+01
       O  4.52772e+00 -2.57751e+00 -1.31733e+01
       H  3.06068e+00 -3.60627e+00 -1.36334e+01
       H  6.04403e+00 -3.58305e+00 -1.35003e+01
       O  4.54334e+00 -1.25494e+01 -7.82465e-01
       H  4.54513e+00 -1.43463e+01 -2.27989e-01
       H  4.35168e+00 -1.25640e+01 -2.59974e+00
       O  2.94294e-01 -5.18980e+00 -7.82487e-01
       H  2.96032e-01 -6.98663e+00 -2.28053e-01
       H  1.02602e-01 -5.20427e+00 -2.59977e+00
       O  3.97042e+00 -1.21415e+01 -6.25517e+00
       H  2.45414e+00 -1.11359e+01 -6.58198e+00
       H  5.43747e+00 -1.11128e+01 -6.71526e+00
       O -2.78672e-01 -4.78194e+00 -6.25508e+00
       H -1.79498e+00 -3.77636e+00 -6.58199e+00
       H  1.18837e+00 -3.75320e+00 -6.71514e+00
       O -2.94511e-01 -9.52920e+00 -7.70081e+00
       H -1.02600e-01 -9.51466e+00 -9.51806e+00
       H -2.96005e-01 -7.73240e+00 -7.14625e+00
       O  3.95462e+00 -2.16972e+00 -7.70080e+00
       H  4.14654e+00 -2.15521e+00 -9.51804e+00
       H  3.95318e+00 -3.72879e-01 -7.14628e+00
       O  2.78541e-01 -9.93701e+00  6.63104e-01
       H -1.18842e+00 -1.09658e+01  2.03011e-01
       H  1.79493e+00 -1.09425e+01  3.36333e-01
       O  4.52773e+00 -2.57757e+00  6.63187e-01
       H  3.06068e+00 -3.60633e+00  2.03125e-01
       H  6.04402e+00 -3.58308e+00  3.36357e-01
       O  4.54332e+00 -1.25494e+01  1.30541e+01
       H  4.54518e+00 -1.43462e+01  1.36086e+01
       H  4.35169e+00 -1.25640e+01  1.12368e+01
       O  2.94281e-01 -5.18991e+00  1.30541e+01
       H  2.95995e-01 -6.98675e+00  1.36085e+01
       H  1.02570e-01 -5.20435e+00  1.12368e+01
       O  3.97044e+00 -1.21415e+01  7.58145e+00
       H  2.45413e+00 -1.11360e+01  7.25466e+00
       H  5.43745e+00 -1.11128e+01  7.12135e+00
       O -2.78601e-01 -4.78191e+00  7.58148e+00
       H -1.79495e+00 -3.77634e+00  7.25458e+00
       H  1.18839e+00 -3.75323e+00  7.12138e+00
       O -2.94501e-01 -9.52922e+00  6.13582e+00
       H -1.02637e-01 -9.51466e+00  4.31854e+00
       H -2.96013e-01 -7.73241e+00  6.69035e+00
       O  3.95462e+00 -2.16967e+00  6.13570e+00
       H  4.14656e+00 -2.15516e+00  4.31844e+00
       H  3.95315e+00 -3.72836e-01  6.69024e+00
       O  2.78636e-01  4.78206e+00 -1.31735e+01
       H -1.18832e+00  3.75329e+00 -1.36335e+01
       H  1.79499e+00  3.77651e+00 -1.35003e+01
       O  4.52773e+00  1.21415e+01 -1.31733e+01
       H  3.06066e+00  1.11127e+01 -1.36334e+01
       H  6.04403e+00  1.11360e+01 -1.35003e+01
       O  4.54332e+00  2.16970e+00 -7.82499e-01
       H  4.54510e+00  3.72872e-01 -2.27973e-01
       H  4.35161e+00  2.15513e+00 -2.59979e+00
       O  2.94188e-01  9.52923e+00 -7.82517e-01
       H  2.95976e-01  7.73239e+00 -2.28033e-01
       H  1.02486e-01  9.51470e+00 -2.59980e+00
       O  3.97041e+00  2.57752e+00 -6.25508e+00
       H  2.45414e+00  3.58307e+00 -6.58188e+00
       H  5.43747e+00  3.60626e+00 -6.71516e+00
       O -2.78677e-01  9.93714e+00 -6.25506e+00
       H -1.79497e+00  1.09427e+01 -6.58203e+00
       H  1.18838e+00  1.09659e+01 -6.71517e+00
       O -2.94451e-01  5.18990e+00 -7.70074e+00
       H -1.02475e-01  5.20442e+00 -9.51799e+00
       H -2.95971e-01  6.98671e+00 -7.14623e+00
       O  3.95453e+00  1.25494e+01 -7.70088e+00
       H  4.14650e+00  1.25638e+01 -9.51813e+00
       H  3.95314e+00  1.43462e+01 -7.14638e+00
       O  2.78666e-01  4.78190e+00  6.63181e-01
       H -1.18838e+00  3.75314e+00  2.03219e-01
       H  1.79499e+00  3.77637e+00  3.36305e-01
       O  4.52768e+00  1.21415e+01  6.63233e-01
       H  3.06065e+00  1.11127e+01  2.03130e-01
       H  6.04402e+00  1.11359e+01  3.36318e-01
       O  4.54337e+00  2.16963e+00  1.30541e+01
       H  4.54515e+00  3.72778e-01  1.36085e+01
       H  4.35165e+00  2.15511e+00  1.12368e+01
       O  2.94139e-01  9.52935e+00  1.30540e+01
       H  2.96028e-01  7.73252e+00  1.36085e+01
       H  1.02508e-01  9.51480e+00  1.12368e+01
       O  3.97044e+00  2.57752e+00  7.58146e+00
       H  2.45409e+00  3.58312e+00  7.25468e+00
       H  5.43745e+00  3.60627e+00  7.12136e+00
       O -2.78642e-01  9.93713e+00  7.58156e+00
       H -1.79498e+00  1.09426e+01  7.25459e+00
       H  1.18834e+00  1.09658e+01  7.12145e+00
       O -2.94462e-01  5.18993e+00  6.13575e+00
       H -1.02485e-01  5.20444e+00  4.31854e+00
       H -2.95928e-01  6.98677e+00  6.69031e+00
       O  3.95461e+00  1.25493e+01  6.13580e+00
       H  4.14651e+00  1.25638e+01  4.31854e+00
       H  3.95313e+00  1.43462e+01  6.69028e+00
192
# CELL(abcABC):   16.99620    29.43815    27.67315    90.00000    90.00000    90.00000  Step:          10  Bead:      28 positions{atomic_unit}  cell{atomic_unit}
       O -8.19313e+00 -9.92239e+00 -1.31738e+01
       H  7.29186e+00 -1.10590e+01 -1.36077e+01
       H -6.67154e+00 -1.08460e+01 -1.34532e+01
       O -3.93635e+00 -2.56766e+00 -1.31278e+01
       H -5.35458e+00 -3.60111e+00 -1.35828e+01
       H -2.63974e+00 -3.61277e+00 -1.31964e+01
       O -3.93020e+00 -1.25390e+01 -8.11349e-01
       H -3.83913e+00 -1.43725e+01 -2.11864e-01
       H -4.09393e+00 -1.24497e+01 -2.61030e+00
       O -8.25190e+00 -5.20242e+00 -8.08202e-01
       H -8.22860e+00 -7.17138e+00 -1.96467e-01
       H -8.35949e+00 -5.30094e+00 -2.41196e+00
       O -4.51726e+00 -1.21559e+01 -6.26693e+00
       H -6.00233e+00 -1.11926e+01 -6.72834e+00
       H -3.16829e+00 -1.11328e+01 -6.72862e+00
       O  8.23245e+00 -4.76015e+00 -6.25329e+00
       H  6.51016e+00 -3.74320e+00 -6.54083e+00
       H -7.24080e+00 -3.68540e+00 -6.78010e+00
       O  8.20079e+00 -9.48383e+00 -7.70441e+00
       H  8.56103e+00 -9.62299e+00 -9.36422e+00
       H  8.21470e+00 -7.78591e+00 -7.15021e+00
       O -4.55769e+00 -2.11535e+00 -7.71268e+00
       H -4.35196e+00 -2.14497e+00 -9.44927e+00
       H -4.44602e+00 -4.70395e-01 -7.09726e+00
       O -8.18988e+00 -9.93177e+00  6.96796e-01
       H  7.41421e+00 -1.09675e+01  1.80150e-01
       H -6.57225e+00 -1.10469e+01  3.39769e-01
       O -3.96666e+00 -2.59018e+00  7.15200e-01
       H -5.44426e+00 -3.63184e+00 -6.37199e-03
       H -2.39276e+00 -3.61367e+00  4.45127e-01
       O -3.94996e+00 -1.25219e+01  1.30425e+01
       H -4.04248e+00 -1.43043e+01  1.36212e+01
       H -4.18594e+00 -1.24973e+01  1.12073e+01
       O -8.22983e+00 -5.20747e+00  1.30273e+01
       H -8.15283e+00 -6.96776e+00  1.36662e+01
       H -8.47721e+00 -5.14315e+00  1.11762e+01
       O -4.52694e+00 -1.21437e+01  7.55936e+00
       H -6.04717e+00 -1.10741e+01  7.22472e+00
       H -2.96479e+00 -1.09342e+01  7.11426e+00
       O  8.23243e+00 -4.79084e+00  7.59877e+00
       H  6.68566e+00 -3.62519e+00  7.42152e+00
       H -7.20903e+00 -3.78741e+00  7.04788e+00
       O  8.20645e+00 -9.50752e+00  6.13291e+00
       H  8.53321e+00 -9.31904e+00  4.39307e+00
       H  8.22334e+00 -7.83461e+00  6.71768e+00
       O -4.51352e+00 -2.17478e+00  6.18729e+00
       H -4.29748e+00 -2.23911e+00  4.42102e+00
       H -4.51324e+00 -4.17368e-01  6.77618e+00
       O -8.23823e+00  4.81372e+00 -1.31461e+01
       H  7.27390e+00  3.71946e+00 -1.34545e+01
       H -6.77933e+00  3.91949e+00 -1.34644e+01
       O -3.95297e+00  1.21532e+01 -1.31858e+01
       H -5.47823e+00  1.10125e+01 -1.36010e+01
       H -2.54544e+00  1.09675e+01 -1.34944e+01
       O -3.92527e+00  2.13836e+00 -7.91719e-01
       H -4.02079e+00  3.22932e-01 -2.74399e-01
       H -4.12166e+00  2.04986e+00 -2.68989e+00
       O -8.21882e+00  9.48528e+00 -7.95662e-01
       H -8.14495e+00  7.85992e+00 -2.78941e-01
       H -8.28305e+00  9.49640e+00 -2.81890e+00
       O -4.51319e+00  2.56266e+00 -6.26496e+00
       H -6.10185e+00  3.56872e+00 -6.59492e+00
       H -3.11754e+00  3.46784e+00 -6.67520e+00
       O  8.20455e+00  9.93086e+00 -6.24155e+00
       H  6.66233e+00  1.10031e+01 -6.65710e+00
       H -7.35952e+00  1.08956e+01 -6.67234e+00
       O  8.20307e+00  5.22191e+00 -7.66866e+00
       H  8.46810e+00  5.02101e+00 -9.52509e+00
       H  8.36599e+00  7.09926e+00 -7.24220e+00
       O -4.54473e+00  1.25624e+01 -7.72002e+00
       H -4.40044e+00  1.26998e+01 -9.59607e+00
       H -4.57894e+00  1.42883e+01 -7.06271e+00
       O -8.20275e+00  4.77871e+00  6.35771e-01
       H  7.36631e+00  3.74295e+00  2.78437e-01
       H -6.68201e+00  3.84034e+00  4.25697e-01
       O -3.97661e+00  1.21197e+01  6.74910e-01
       H -5.29489e+00  1.11270e+01  3.03977e-01
       H -2.65353e+00  1.11755e+01  3.18849e-01
       O -3.94767e+00  2.14093e+00  1.30345e+01
       H -3.84473e+00  3.97131e-01  1.37140e+01
       H -4.22354e+00  2.09835e+00  1.11670e+01
       O -8.19847e+00  9.51185e+00  1.30545e+01
       H -8.24022e+00  7.65328e+00  1.35120e+01
       H -8.50644e+00  9.41851e+00  1.13219e+01
       O -4.50702e+00  2.58655e+00  7.54235e+00
       H -6.03698e+00  3.47047e+00  7.18746e+00
       H -2.99411e+00  3.60041e+00  7.26125e+00
       O  8.24360e+00  9.93127e+00  7.60647e+00
       H  6.65905e+00  1.09649e+01  7.26013e+00
       H -7.31806e+00  1.09442e+01  7.11272e+00
       O  8.22561e+00  5.23122e+00  6.14885e+00
       H  8.18809e+00  5.04911e+00  4.22419e+00
       H  8.20337e+00  6.94706e+00  6.66658e+00
       O -4.52365e+00  1.24982e+01  6.15129e+00
       H -4.38771e+00  1.25276e+01  4.31623e+00
       H -4.50894e+00  1.42821e+01  6.70879e+00
       O  2.91867e-01 -9.96268e+00 -1.32050e+01
       H -1.09871e+00 -1.10063e+01 -1.36075e+01
       H  1.78357e+00 -1.09295e+01 -1.33732e+01
       O  4.51153e+00 -2.59988e+00 -1.31650e+01
       H  3.14622e+00 -3.35764e+00 -1.35347e+01
       H  5.97023e+00 -3.46674e+00 -1.35499e+01
       O  4.56292e+00 -1.25837e+01 -8.08475e-01
       H  4.47525e+00 -1.43268e+01 -2.28421e-01
       H  4.43749e+00 -1.23471e+01 -2.59109e+00
       O  2.84920e-01 -5.19824e+00 -7.78135e-01
       H  3.21645e-01 -7.04794e+00 -7.99298e-02
       H  9.77902e-02 -5.22841e+00 -2.48171e+00
       O  3.95824e+00 -1.21239e+01 -6.25344e+00
       H  2.39232e+00 -1.12791e+01 -6.60443e+00
       H  5.34577e+00 -1.12082e+01 -6.68310e+00
       O -2.90615e-01 -4.80950e+00 -6.23323e+00
       H -1.92427e+00 -3.82254e+00 -6.76315e+00
       H  1.20398e+00 -3.82361e+00 -6.70933e+00
       O -2.85740e-01 -9.50730e+00 -7.69863e+00
       H  5.27202e-02 -9.67425e+00 -9.44216e+00
       H -5.28510e-01 -7.92341e+00 -7.10627e+00
       O  3.96394e+00 -2.17442e+00 -7.68832e+00
       H  4.20848e+00 -2.19337e+00 -9.48851e+00
       H  4.11407e+00 -5.10122e-01 -7.04121e+00
       O  3.16599e-01 -9.90781e+00  6.64988e-01
       H -1.35906e+00 -1.09405e+01  1.21117e-01
       H  1.71037e+00 -1.08835e+01  3.47459e-01
       O  4.54336e+00 -2.55192e+00  6.19999e-01
       H  3.07295e+00 -3.63635e+00  2.92123e-01
       H  5.92387e+00 -3.66226e+00  4.78510e-01
       O  4.54153e+00 -1.25590e+01  1.30906e+01
       H  4.51406e+00 -1.43614e+01  1.36574e+01
       H  4.43331e+00 -1.23746e+01  1.11569e+01
       O  3.14207e-01 -5.19158e+00  1.30586e+01
       H  3.75412e-01 -7.11048e+00  1.37494e+01
       H -3.98652e-02 -5.16046e+00  1.11652e+01
       O  3.97186e+00 -1.21579e+01  7.59796e+00
       H  2.44054e+00 -1.11913e+01  7.22726e+00
       H  5.27000e+00 -1.10955e+01  7.02684e+00
       O -2.93824e-01 -4.77413e+00  7.56312e+00
       H -1.93993e+00 -3.83890e+00  7.27522e+00
       H  1.21806e+00 -3.85283e+00  7.07575e+00
       O -3.33231e-01 -9.56351e+00  6.12968e+00
       H -2.95204e-01 -9.42580e+00  4.19166e+00
       H -1.76632e-01 -7.71053e+00  6.87109e+00
       O  3.93694e+00 -2.19635e+00  6.13671e+00
       H  4.15298e+00 -2.28974e+00  4.33414e+00
       H  3.95901e+00 -2.35388e-01  6.72931e+00
       O  2.39184e-01  4.80231e+00 -1.31552e+01
       H -1.26840e+00  3.87232e+00 -1.35959e+01
       H  1.68877e+00  3.78528e+00 -1.36933e+01
       O  4.52047e+00  1.21227e+01 -1.31608e+01
       H  2.99772e+00  1.10401e+01 -1.36421e+01
       H  6.18446e+00  1.11961e+01 -1.34530e+01
       O  4.53045e+00  2.18051e+00 -7.96593e-01
       H  4.59181e+00  5.49752e-01 -2.64868e-01
       H  4.24819e+00  2.13288e+00 -2.42826e+00
       O  2.89881e-01  9.54185e+00 -7.58568e-01
       H  4.01767e-01  7.79751e+00 -2.27214e-01
       H -1.13257e-01  9.45707e+00 -2.54622e+00
       O  3.96704e+00  2.57829e+00 -6.26903e+00
       H  2.40681e+00  3.46514e+00 -6.39705e+00
       H  5.44443e+00  3.75623e+00 -6.59175e+00
       O -2.71686e-01  9.91879e+00 -6.25191e+00
       H -1.82519e+00  1.09365e+01 -6.76263e+00
       H  1.26000e+00  1.08951e+01 -6.63670e+00
       O -2.68152e-01  5.21046e+00 -7.73516e+00
       H -5.23629e-02  5.33180e+00 -9.53622e+00
       H -3.72462e-01  6.96800e+00 -7.13188e+00
       O  3.96316e+00  1.25760e+01 -7.72841e+00
       H  4.20947e+00  1.25381e+01 -9.48454e+00
       H  4.17120e+00  1.43950e+01 -7.21402e+00
       O  2.72045e-01  4.78337e+00  6.43949e-01
       H -1.14656e+00  3.66122e+00  1.97474e-01
       H  1.80174e+00  3.99078e+00  2.09365e-01
       O  4.55593e+00  1.20928e+01  6.84852e-01
       H  3.04330e+00  1.11096e+01  2.50367e-01
       H  6.16325e+00  1.09853e+01  4.85024e-01
       O  4.52148e+00  2.17994e+00  1.30073e+01
       H  4.60586e+00  3.46012e-01  1.35596e+01
       H  4.39462e+00  2.14236e+00  1.11665e+01
       O  2.69883e-01  9.50800e+00  1.30619e+01
       H  4.06568e-01  7.73899e+00  1.34765e+01
       H  3.11421e-02  9.42721e+00  1.12445e+01
       O  3.97267e+00  2.56348e+00  7.60965e+00
       H  2.44526e+00  3.45238e+00  7.32836e+00
       H  5.45683e+00  3.65949e+00  7.16208e+00
       O -2.69338e-01  9.93316e+00  7.60007e+00
       H -1.70893e+00  1.10642e+01  7.19155e+00
       H  1.10925e+00  1.09340e+01  7.00494e+00
       O -3.14948e-01  5.16902e+00  6.12975e+00
       H -1.77591e-01  5.22673e+00  4.44930e+00
       H -8.71330e-02  7.21921e+00  6.67257e+00
       O  3.99748e+00  1.25621e+01  6.12342e+00
       H  4.17178e+00  1.25891e+01  4.36982e+00
       H  3.88952e+00  1.43420e+01  6.71965e+00
192
# CELL(abcABC):   16.99620    29.43815    27.67315    90.00000    90.00000    90.00000  Step:          20  Bead:      28 positions{atomic_unit}  cell{atomic_unit}
       O -8.20068e+00 -9.95206e+00 -1.32000e+01
       H  7.21077e+00 -1.10380e+01 -1.34979e+01
       H -6.66341e+00 -1.09998e+01 -1.34975e+01
       O -3.85723e+00 -2.54895e+00 -1.30985e+01
       H -5.41533e+00 -3.61077e+00 -1.35751e+01
       H -2.53994e+00 -3.57484e+00 -1.30246e+01
       O -3.94496e+00 -1.25555e+01 -8.20161e-01
       H -3.82380e+00 -1.44030e+01 -2.24973e-01
       H -4.22748e+00 -1.23842e+01 -2.56543e+00
       O -8.28682e+00 -5.20683e+00 -8.19518e-01
       H -8.14275e+00 -7.11785e+00 -3.07360e-01
       H -8.31963e+00 -5.33357e+00 -2.48913e+00
       O -4.50335e+00 -1.21168e+01 -6.30063e+00
       H -5.99376e+00 -1.10877e+01 -6.71742e+00
       H -3.30580e+00 -1.10904e+01 -6.74099e+00
       O  8.20296e+00 -4.76201e+00 -6.26580e+00
       H  6.46598e+00 -3.71619e+00 -6.41466e+00
       H -7.13012e+00 -3.61288e+00 -6.99361e+00
       O  8.22134e+00 -9.47491e+00 -7.70575e+00
       H  8.50017e+00 -9.54132e+00 -9.34569e+00
       H  8.26237e+00 -7.77656e+00 -7.08754e+00
       O -4.54994e+00 -2.10172e+00 -7.71949e+00
       H -4.44320e+00 -2.20862e+00 -9.52292e+00
       H -4.46648e+00 -4.77615e-01 -7.07254e+00
       O -8.20355e+00 -9.93164e+00  6.89886e-01
       H  7.40087e+00 -1.10080e+01  1.49796e-01
       H -6.60123e+00 -1.11327e+01  3.35077e-01
       O -4.00438e+00 -2.59889e+00  7.39727e-01
       H -5.29618e+00 -3.70876e+00  1.05554e-01
       H -2.35627e+00 -3.72029e+00  3.71023e-01
       O -3.94808e+00 -1.24931e+01  1.30442e+01
       H -4.06020e+00 -1.41892e+01  1.36884e+01
       H -4.32535e+00 -1.25141e+01  1.13333e+01
       O -8.22297e+00 -5.16455e+00  1.30599e+01
       H -8.11987e+00 -6.80659e+00  1.36552e+01
       H -8.53106e+00 -5.32734e+00  1.11949e+01
       O -4.54485e+00 -1.21463e+01  7.53047e+00
       H -6.09057e+00 -1.11069e+01  7.00493e+00
       H -2.92483e+00 -1.10501e+01  6.99734e+00
       O  8.25623e+00 -4.77643e+00  7.62874e+00
       H  6.65714e+00 -3.49100e+00  7.48960e+00
       H -7.26445e+00 -3.85947e+00  6.98220e+00
       O  8.22183e+00 -9.49183e+00  6.14263e+00
       H  8.60923e+00 -9.18753e+00  4.46453e+00
       H  8.19027e+00 -7.64346e+00  6.77341e+00
       O -4.52279e+00 -2.20419e+00  6.16586e+00
       H -4.44197e+00 -2.25930e+00  4.45700e+00
       H -4.68865e+00 -4.13118e-01  6.94353e+00
       O -8.29162e+00  4.83051e+00 -1.31545e+01
       H  7.25143e+00  3.54809e+00 -1.35881e+01
       H -6.70735e+00  4.00718e+00 -1.34301e+01
       O -3.95655e+00  1.21503e+01 -1.31945e+01
       H -5.47419e+00  1.09418e+01 -1.37264e+01
       H -2.48427e+00  1.10062e+01 -1.34249e+01
       O -3.87576e+00  2.13380e+00 -8.21367e-01
       H -3.99200e+00  3.62497e-01 -3.08268e-01
       H -4.10141e+00  2.12133e+00 -2.59210e+00
       O -8.22893e+00  9.50165e+00 -8.31418e-01
       H -7.90879e+00  7.91679e+00 -2.83105e-01
       H -8.06862e+00  9.45032e+00 -2.79874e+00
       O -4.55748e+00  2.56338e+00 -6.28589e+00
       H -6.06196e+00  3.64587e+00 -6.64394e+00
       H -3.09138e+00  3.30890e+00 -6.75322e+00
       O  8.14777e+00  9.97986e+00 -6.20734e+00
       H  6.66215e+00  1.10040e+01 -6.78817e+00
       H -7.35961e+00  1.09092e+01 -6.67175e+00
       O  8.20145e+00  5.24412e+00 -7.67758e+00
       H  8.58966e+00  4.88778e+00 -9.56046e+00
       H  8.31340e+00  6.93728e+00 -7.31411e+00
       O -4.60221e+00  1.25595e+01 -7.69140e+00
       H -4.42259e+00  1.28038e+01 -9.60407e+00
       H -4.53124e+00  1.44046e+01 -7.04255e+00
       O -8.19409e+00  4.74344e+00  6.29743e-01
       H  7.40549e+00  3.54925e+00  3.19804e-01
       H -6.73869e+00  3.85650e+00  3.83686e-01
       O -3.97051e+00  1.21141e+01  6.58199e-01
       H -5.32238e+00  1.12005e+01  1.23989e-01
       H -2.56665e+00  1.12210e+01  2.76435e-01
       O -3.94700e+00  2.17949e+00  1.30218e+01
       H -3.79855e+00  2.46974e-01  1.36708e+01
       H -4.51820e+00  2.10904e+00  1.11526e+01
       O -8.24087e+00  9.46842e+00  1.30864e+01
       H -8.39881e+00  7.55413e+00  1.33277e+01
       H -8.60933e+00  9.39581e+00  1.12015e+01
       O -4.50115e+00  2.58786e+00  7.55064e+00
       H -6.25080e+00  3.44089e+00  7.28054e+00
       H -2.94482e+00  3.55791e+00  7.20154e+00
       O  8.27320e+00  9.93824e+00  7.60268e+00
       H  6.54612e+00  1.10314e+01  7.24971e+00
       H -7.18614e+00  1.08822e+01  6.88755e+00
       O  8.22739e+00  5.23625e+00  6.12360e+00
       H  8.30272e+00  5.11993e+00  4.24409e+00
       H  8.22236e+00  7.03406e+00  6.62758e+00
       O -4.49952e+00  1.24795e+01  6.16563e+00
       H -4.41289e+00  1.26554e+01  4.41952e+00
       H -4.60088e+00  1.43324e+01  6.70152e+00
       O  2.80856e-01 -9.94914e+00 -1.32298e+01
       H -1.01953e+00 -1.10273e+01 -1.35839e+01
       H  1.70748e+00 -1.10610e+01 -1.33494e+01
       O  4.51797e+00 -2.61354e+00 -1.31372e+01
       H  3.13932e+00 -3.44156e+00 -1.34723e+01
       H  5.82375e+00 -3.42555e+00 -1.35165e+01
       O  4.57726e+00 -1.26666e+01 -8.55693e-01
       H  4.45232e+00 -1.42508e+01 -2.36236e-01
       H  4.48184e+00 -1.22976e+01 -2.53619e+00
       O  2.74928e-01 -5.23164e+00 -7.68542e-01
       H  1.91134e-01 -7.12441e+00 -1.29470e-01
       H  1.86077e-01 -5.13659e+00 -2.53945e+00
       O  4.00358e+00 -1.21527e+01 -6.25322e+00
       H  2.25926e+00 -1.13721e+01 -6.54102e+00
       H  5.44589e+00 -1.11876e+01 -6.67352e+00
       O -2.84511e-01 -4.81987e+00 -6.21211e+00
       H -1.81061e+00 -3.86053e+00 -6.72016e+00
       H  1.37513e+00 -3.78977e+00 -6.62218e+00
       O -2.95338e-01 -9.49178e+00 -7.73192e+00
       H  1.09573e-02 -9.63227e+00 -9.34643e+00
       H -5.63761e-01 -7.86481e+00 -7.09889e+00
       O  3.94776e+00 -2.15766e+00 -7.68804e+00
       H  3.91484e+00 -2.08072e+00 -9.54417e+00
       H  4.24322e+00 -6.12650e-01 -7.08861e+00
       O  2.92975e-01 -9.89296e+00  6.36642e-01
       H -1.26923e+00 -1.08898e+01  1.02956e-01
       H  1.84558e+00 -1.08524e+01  2.97616e-01
       O  4.55807e+00 -2.54571e+00  5.93550e-01
       H  3.09222e+00 -3.63615e+00  3.15796e-01
       H  5.82025e+00 -3.68119e+00  6.31131e-01
       O  4.54652e+00 -1.25131e+01  1.31280e+01
       H  4.41559e+00 -1.42864e+01  1.35135e+01
       H  4.26522e+00 -1.23476e+01  1.13147e+01
       O  2.90068e-01 -5.16489e+00  1.30586e+01
       H  5.50662e-01 -7.22955e+00  1.37979e+01
       H -3.50184e-02 -5.14529e+00  1.12702e+01
       O  3.97120e+00 -1.21356e+01  7.55877e+00
       H  2.38344e+00 -1.10494e+01  7.19109e+00
       H  5.33583e+00 -1.11713e+01  7.06209e+00
       O -3.33484e-01 -4.76988e+00  7.50985e+00
       H -1.84226e+00 -3.64766e+00  7.29907e+00
       H  1.29994e+00 -3.76800e+00  7.16575e+00
       O -3.64356e-01 -9.57238e+00  6.11159e+00
       H -4.55784e-01 -9.48608e+00  4.12273e+00
       H -1.13092e-01 -7.63631e+00  6.81882e+00
       O  3.95130e+00 -2.24801e+00  6.09803e+00
       H  4.07458e+00 -2.37648e+00  4.35941e+00
       H  4.03519e+00 -2.26423e-01  6.81177e+00
       O  1.89859e-01  4.80579e+00 -1.31576e+01
       H -1.27150e+00  4.02287e+00 -1.35541e+01
       H  1.59020e+00  3.68988e+00 -1.37413e+01
       O  4.51560e+00  1.20824e+01 -1.31533e+01
       H  3.07452e+00  1.10903e+01 -1.36171e+01
       H  6.13241e+00  1.11930e+01 -1.33802e+01
       O  4.54933e+00  2.18765e+00 -7.65390e-01
       H  4.58637e+00  4.22990e-01 -8.61215e-02
       H  4.35390e+00  2.10902e+00 -2.51482e+00
       O  2.96052e-01  9.48373e+00 -7.69205e-01
       H  4.18685e-01  7.80128e+00 -2.97490e-02
       H -1.50547e-01  9.47427e+00 -2.55642e+00
       O  3.97976e+00  2.59662e+00 -6.28462e+00
       H  2.45079e+00  3.40409e+00 -6.38065e+00
       H  5.43895e+00  3.86933e+00 -6.53748e+00
       O -2.73094e-01  9.92193e+00 -6.24372e+00
       H -1.77358e+00  1.08827e+01 -6.67611e+00
       H  1.32759e+00  1.09782e+01 -6.55699e+00
       O -2.95014e-01  5.20624e+00 -7.73872e+00
       H -1.82561e-01  5.41730e+00 -9.44760e+00
       H -4.29056e-01  7.02413e+00 -7.21990e+00
       O  3.97767e+00  1.25899e+01 -7.72753e+00
       H  4.24557e+00  1.25426e+01 -9.38837e+00
       H  4.04553e+00  1.44881e+01 -7.17425e+00
       O  2.50668e-01  4.81467e+00  6.85496e-01
       H -1.08180e+00  3.52618e+00  2.55835e-01
       H  1.83283e+00  4.00557e+00  1.95099e-01
       O  4.59002e+00  1.20776e+01  6.93624e-01
       H  3.18238e+00  1.10276e+01  1.77329e-01
       H  6.25904e+00  1.09693e+01  4.62327e-01
       O  4.49652e+00  2.24560e+00  1.30198e+01
       H  4.62009e+00  3.79034e-01  1.37365e+01
       H  4.54308e+00  2.33461e+00  1.10134e+01
       O  2.52810e-01  9.52615e+00  1.30382e+01
       H  5.00579e-01  7.71270e+00  1.35439e+01
       H -5.40378e-02  9.41075e+00  1.11159e+01
       O  4.00114e+00  2.50934e+00  7.59891e+00
       H  2.51197e+00  3.52033e+00  7.46413e+00
       H  5.45942e+00  3.76408e+00  7.39917e+00
       O -2.60696e-01  9.95115e+00  7.59054e+00
       H -1.69423e+00  1.11022e+01  7.25516e+00
       H  1.01474e+00  1.08729e+01  7.00968e+00
       O -2.89451e-01  5.16421e+00  6.13428e+00
       H -3.18754e-01  5.22559e+00  4.36354e+00
       H -2.22925e-03  7.36896e+00  6.63992e+00
       O  3.99334e+00  1.25509e+01  6.10580e+00
       H  3.96196e+00  1.25686e+01  4.42967e+00
       H  3.89951e+00  1.43474e+01  6.74875e+00
192
# CELL(abcABC):   16.99620    29.43815    27.67315    90.00000    90.00000    90.00000  Step:          30  Bead:      28 positions{atomic_unit}  cell{atomic_unit}
       O -8.20475e+00 -9.95328e+00 -1.32124e+01
       H  7.20212e+00 -1.10604e+01 -1.33638e+01
       H -6.84381e+00 -1.09724e+01 -1.35153e+01
       O -3.86689e+00 -2.53751e+00 -1.30913e+01
       H -5.23593e+00 -3.73862e+00 -1.35992e+01
       H -2.28266e+00 -3.77250e+00 -1.29839e+01
       O -3.94068e+00 -1.25521e+01 -8.41695e-01
       H -3.90950e+00 -1.43401e+01 -3.37174e-01
       H -4.29252e+00 -1.22780e+01 -2.56835e+00
       O -8.28441e+00 -5.22235e+00 -7.95564e-01
       H -8.01501e+00 -7.10340e+00 -4.01970e-01
       H -8.35699e+00 -5.25877e+00 -2.69434e+00
       O -4.51395e+00 -1.21199e+01 -6.29003e+00
       H -5.96063e+00 -1.10218e+01 -6.71316e+00
       H -3.28780e+00 -1.09565e+01 -6.76781e+00
       O  8.17804e+00 -4.76885e+00 -6.27726e+00
       H  6.41347e+00 -3.62837e+00 -6.44606e+00
       H -7.13422e+00 -3.60400e+00 -7.21905e+00
       O  8.25435e+00 -9.47606e+00 -7.68904e+00
       H  8.36309e+00 -9.30501e+00 -9.46566e+00
       H  8.11916e+00 -7.89861e+00 -6.92957e+00
       O -4.55721e+00 -2.12237e+00 -7.70776e+00
       H -4.46802e+00 -2.11439e+00 -9.50659e+00
       H -4.52972e+00 -4.88625e-01 -7.00220e+00
       O -8.19911e+00 -9.91814e+00  6.83426e-01
       H  7.16731e+00 -1.09002e+01  6.33886e-02
       H -6.72832e+00 -1.11547e+01  1.99871e-01
       O -3.98763e+00 -2.62639e+00  7.46855e-01
       H -5.39003e+00 -3.56308e+00  1.45713e-01
       H -2.35325e+00 -3.71265e+00  4.06266e-01
       O -3.95069e+00 -1.24257e+01  1.30460e+01
       H -3.94368e+00 -1.41006e+01  1.36740e+01
       H -4.34246e+00 -1.24083e+01  1.13298e+01
       O -8.23192e+00 -5.15429e+00  1.30406e+01
       H -8.04117e+00 -6.93487e+00  1.34984e+01