192
# CELL(abcABC):   16.99620    29.43815    27.67315    90.00000    90.00000    90.00000  Step:           0  Bead:       8 positions{atomic_unit}  cell{atomic_unit}
       O -8.21943e+00 -9.93714e+00 -1.31733e+01
       H  7.30975e+00 -1.09659e+01 -1.36333e+01
       H -6.70309e+00 -1.09427e+01 -1.35003e+01
       O -3.97045e+00 -2.57760e+00 -1.31733e+01
       H -5.43740e+00 -3.60640e+00 -1.36335e+01
       H -2.45410e+00 -3.58307e+00 -1.35002e+01
       O -3.95479e+00 -1.25494e+01 -7.82537e-01
       H -3.95303e+00 -1.43463e+01 -2.27998e-01
       H -4.14654e+00 -1.25640e+01 -2.59980e+00
       O -8.20381e+00 -5.18980e+00 -7.82573e-01
       H -8.20206e+00 -6.98662e+00 -2.28079e-01
       H -8.39554e+00 -5.20430e+00 -2.59985e+00
       O -4.52774e+00 -1.21415e+01 -6.25501e+00
       H -6.04401e+00 -1.11359e+01 -6.58198e+00
       H -3.06070e+00 -1.11128e+01 -6.71509e+00
       O  8.21948e+00 -4.78197e+00 -6.25503e+00
       H  6.70316e+00 -3.77646e+00 -6.58191e+00
       H -7.30970e+00 -3.75321e+00 -6.71514e+00
       O  8.20373e+00 -9.52922e+00 -7.70081e+00
       H  8.39566e+00 -9.51468e+00 -9.51806e+00
       H  8.20220e+00 -7.73240e+00 -7.14624e+00
       O -4.54345e+00 -2.16975e+00 -7.70084e+00
       H -4.35162e+00 -2.15526e+00 -9.51812e+00
       H -4.54503e+00 -3.72917e-01 -7.14634e+00
       O -8.21943e+00 -9.93697e+00  6.63195e-01
       H  7.30977e+00 -1.09657e+01  2.03202e-01
       H -6.70308e+00 -1.09425e+01  3.36227e-01
       O -3.97044e+00 -2.57760e+00  6.63173e-01
       H -5.43747e+00 -3.60635e+00  2.03069e-01
       H -2.45410e+00 -3.58312e+00  3.36346e-01
       O -3.95472e+00 -1.25494e+01  1.30540e+01
       H -3.95309e+00 -1.43462e+01  1.36086e+01
       H -4.14653e+00 -1.25640e+01  1.12368e+01
       O -8.20380e+00 -5.18990e+00  1.30541e+01
       H -8.20202e+00 -6.98672e+00  1.36085e+01
       H -8.39553e+00 -5.20434e+00  1.12368e+01
       O -4.52771e+00 -1.21415e+01  7.58159e+00
       H -6.04402e+00 -1.11360e+01  7.25460e+00
       H -3.06070e+00 -1.11128e+01  7.12152e+00
       O  8.21944e+00 -4.78191e+00  7.58149e+00
       H  6.70312e+00 -3.77633e+00  7.25453e+00
       H -7.30974e+00 -3.75322e+00  7.12139e+00
       O  8.20378e+00 -9.52926e+00  6.13582e+00
       H  8.39564e+00 -9.51474e+00  4.31856e+00
       H  8.20221e+00 -7.73246e+00  6.69037e+00
       O -4.54344e+00 -2.16971e+00  6.13568e+00
       H -4.35161e+00 -2.15522e+00  4.31840e+00
       H -4.54506e+00 -3.72896e-01  6.69017e+00
       O -8.21947e+00  4.78210e+00 -1.31734e+01
       H  7.30974e+00  3.75335e+00 -1.36334e+01
       H -6.70314e+00  3.77651e+00 -1.35002e+01
       O -3.97046e+00  1.21415e+01 -1.31733e+01
       H -5.43745e+00  1.11127e+01 -1.36334e+01
       H -2.45410e+00  1.11360e+01 -1.35002e+01
       O -3.95479e+00  2.16971e+00 -7.82462e-01
       H -3.95303e+00  3.72884e-01 -2.27933e-01
       H -4.14646e+00  2.15509e+00 -2.59975e+00
       O -8.20376e+00  9.52923e+00 -7.82499e-01
       H -8.20200e+00  7.73238e+00 -2.27998e-01
       H -8.39546e+00  9.51472e+00 -2.59977e+00
       O -4.52774e+00  2.57749e+00 -6.25512e+00
       H -6.04400e+00  3.58312e+00 -6.58197e+00
       H -3.06066e+00  3.60618e+00 -6.71512e+00
       O  8.21949e+00  9.93715e+00 -6.25509e+00
       H  6.70318e+00  1.09426e+01 -6.58202e+00
       H -7.30970e+00  1.09659e+01 -6.71526e+00
       O  8.20366e+00  5.18988e+00 -7.70077e+00
       H  8.39552e+00  5.20437e+00 -9.51803e+00
       H  8.20217e+00  6.98669e+00 -7.14625e+00
       O -4.54337e+00  1.25494e+01 -7.70088e+00
       H -4.35159e+00  1.25639e+01 -9.51817e+00
       H -4.54500e+00  1.43462e+01 -7.14634e+00
       O -8.21952e+00  4.78190e+00  6.63226e-01
       H  7.30971e+00  3.75313e+00  2.03107e-01
       H -6.70317e+00  3.77635e+00  3.36440e-01
       O -3.97040e+00  1.21415e+01  6.63326e-01
       H -5.43738e+00  1.11127e+01  2.03185e-01
       H -2.45407e+00  1.11360e+01  3.36426e-01
       O -3.95476e+00  2.16964e+00  1.30541e+01
       H -3.95303e+00  3.72832e-01  1.36087e+01
       H -4.14651e+00  2.15510e+00  1.12369e+01
       O -8.20373e+00  9.52937e+00  1.30540e+01
       H -8.20206e+00  7.73252e+00  1.36085e+01
       H -8.39548e+00  9.51483e+00  1.12368e+01
       O -4.52770e+00  2.57756e+00  7.58140e+00
       H -6.04399e+00  3.58315e+00  7.25450e+00
       H -3.06066e+00  3.60630e+00  7.12138e+00
       O  8.21951e+00  9.93714e+00  7.58157e+00
       H  6.70319e+00  1.09427e+01  7.25463e+00
       H -7.30968e+00  1.09658e+01  7.12140e+00
       O  8.20369e+00  5.18993e+00  6.13578e+00
       H  8.39547e+00  5.20441e+00  4.31850e+00
       H  8.20212e+00  6.98674e+00  6.69030e+00
       O -4.54348e+00  1.25494e+01  6.13570e+00
       H -4.35158e+00  1.25639e+01  4.31845e+00
       H -4.54503e+00  1.43462e+01  6.69025e+00
       O  2.78573e-01 -9.93717e+00 -1.31734e+01
       H -1.18842e+00 -1.09659e+01 -1.36336e+01
       H  1.79493e+00 -1.09427e+01 -1.35002e+01
       O  4.52772e+00 -2.57751e+00 -1.31733e+01
       H  3.06068e+00 -3.60627e+00 -1.36334e+01
       H  6.04403e+00 -3.58305e+00 -1.35003e+01
       O  4.54334e+00 -1.25494e+01 -7.82465e-01
       H  4.54513e+00 -1.43463e+01 -2.27989e-01
       H  4.35168e+00 -1.25640e+01 -2.59974e+00
       O  2.94294e-01 -5.18980e+00 -7.82487e-01
       H  2.96032e-01 -6.98663e+00 -2.28053e-01
       H  1.02602e-01 -5.20427e+00 -2.59977e+00
       O  3.97042e+00 -1.21415e+01 -6.25517e+00
       H  2.45414e+00 -1.11359e+01 -6.58198e+00
       H  5.43747e+00 -1.11128e+01 -6.71526e+00
       O -2.78672e-01 -4.78194e+00 -6.25508e+00
       H -1.79498e+00 -3.77636e+00 -6.58199e+00
       H  1.18837e+00 -3.75320e+00 -6.71514e+00
       O -2.94511e-01 -9.52920e+00 -7.70081e+00
       H -1.02600e-01 -9.51466e+00 -9.51806e+00
       H -2.96005e-01 -7.73240e+00 -7.14625e+00
       O  3.95462e+00 -2.16972e+00 -7.70080e+00
       H  4.14654e+00 -2.15521e+00 -9.51804e+00
       H  3.95318e+00 -3.72879e-01 -7.14628e+00
       O  2.78541e-01 -9.93701e+00  6.63104e-01
       H -1.18842e+00 -1.09658e+01  2.03011e-01
       H  1.79493e+00 -1.09425e+01  3.36333e-01
       O  4.52773e+00 -2.57757e+00  6.63187e-01
       H  3.06068e+00 -3.60633e+00  2.03125e-01
       H  6.04402e+00 -3.58308e+00  3.36357e-01
       O  4.54332e+00 -1.25494e+01  1.30541e+01
       H  4.54518e+00 -1.43462e+01  1.36086e+01
       H  4.35169e+00 -1.25640e+01  1.12368e+01
       O  2.94281e-01 -5.18991e+00  1.30541e+01
       H  2.95995e-01 -6.98675e+00  1.36085e+01
       H  1.02570e-01 -5.20435e+00  1.12368e+01
       O  3.97044e+00 -1.21415e+01  7.58145e+00
       H  2.45413e+00 -1.11360e+01  7.25466e+00
       H  5.43745e+00 -1.11128e+01  7.12135e+00
       O -2.78601e-01 -4.78191e+00  7.58148e+00
       H -1.79495e+00 -3.77634e+00  7.25458e+00
       H  1.18839e+00 -3.75323e+00  7.12138e+00
       O -2.94501e-01 -9.52922e+00  6.13582e+00
       H -1.02637e-01 -9.51466e+00  4.31854e+00
       H -2.96013e-01 -7.73241e+00  6.69035e+00
       O  3.95462e+00 -2.16967e+00  6.13570e+00
       H  4.14656e+00 -2.15516e+00  4.31844e+00
       H  3.95315e+00 -3.72836e-01  6.69024e+00
       O  2.78636e-01  4.78206e+00 -1.31735e+01
       H -1.18832e+00  3.75329e+00 -1.36335e+01
       H  1.79499e+00  3.77651e+00 -1.35003e+01
       O  4.52773e+00  1.21415e+01 -1.31733e+01
       H  3.06066e+00  1.11127e+01 -1.36334e+01
       H  6.04403e+00  1.11360e+01 -1.35003e+01
       O  4.54332e+00  2.16970e+00 -7.82499e-01
       H  4.54510e+00  3.72872e-01 -2.27973e-01
       H  4.35161e+00  2.15513e+00 -2.59979e+00
       O  2.94188e-01  9.52923e+00 -7.82517e-01
       H  2.95976e-01  7.73239e+00 -2.28033e-01
       H  1.02486e-01  9.51470e+00 -2.59980e+00
       O  3.97041e+00  2.57752e+00 -6.25508e+00
       H  2.45414e+00  3.58307e+00 -6.58188e+00
       H  5.43747e+00  3.60626e+00 -6.71516e+00
       O -2.78677e-01  9.93714e+00 -6.25506e+00
       H -1.79497e+00  1.09427e+01 -6.58203e+00
       H  1.18838e+00  1.09659e+01 -6.71517e+00
       O -2.94451e-01  5.18990e+00 -7.70074e+00
       H -1.02475e-01  5.20442e+00 -9.51799e+00
       H -2.95971e-01  6.98671e+00 -7.14623e+00
       O  3.95453e+00  1.25494e+01 -7.70088e+00
       H  4.14650e+00  1.25638e+01 -9.51813e+00
       H  3.95314e+00  1.43462e+01 -7.14638e+00
       O  2.78666e-01  4.78190e+00  6.63181e-01
       H -1.18838e+00  3.75314e+00  2.03219e-01
       H  1.79499e+00  3.77637e+00  3.36305e-01
       O  4.52768e+00  1.21415e+01  6.63233e-01
       H  3.06065e+00  1.11127e+01  2.03130e-01
       H  6.04402e+00  1.11359e+01  3.36318e-01
       O  4.54337e+00  2.16963e+00  1.30541e+01
       H  4.54515e+00  3.72778e-01  1.36085e+01
       H  4.35165e+00  2.15511e+00  1.12368e+01
       O  2.94139e-01  9.52935e+00  1.30540e+01
       H  2.96028e-01  7.73252e+00  1.36085e+01
       H  1.02508e-01  9.51480e+00  1.12368e+01
       O  3.97044e+00  2.57752e+00  7.58146e+00
       H  2.45409e+00  3.58312e+00  7.25468e+00
       H  5.43745e+00  3.60627e+00  7.12136e+00
       O -2.78642e-01  9.93713e+00  7.58156e+00
       H -1.79498e+00  1.09426e+01  7.25459e+00
       H  1.18834e+00  1.09658e+01  7.12145e+00
       O -2.94462e-01  5.18993e+00  6.13575e+00
       H -1.02485e-01  5.20444e+00  4.31854e+00
       H -2.95928e-01  6.98677e+00  6.69031e+00
       O  3.95461e+00  1.25493e+01  6.13580e+00
       H  4.14651e+00  1.25638e+01  4.31854e+00
       H  3.95313e+00  1.43462e+01  6.69028e+00
192
# CELL(abcABC):   16.99620    29.43815    27.67315    90.00000    90.00000    90.00000  Step:          10  Bead:       8 positions{atomic_unit}  cell{atomic_unit}
       O -8.18671e+00 -9.94255e+00 -1.31646e+01
       H  7.11990e+00 -1.09720e+01 -1.37839e+01
       H -6.63019e+00 -1.09980e+01 -1.36732e+01
       O -3.97364e+00 -2.59610e+00 -1.31801e+01
       H -5.43022e+00 -3.66344e+00 -1.37144e+01
       H -2.58966e+00 -3.60175e+00 -1.35429e+01
       O -3.98726e+00 -1.25240e+01 -8.06511e-01
       H -3.83824e+00 -1.42676e+01 -1.58629e-01
       H -4.14392e+00 -1.27632e+01 -2.52911e+00
       O -8.24116e+00 -5.18157e+00 -7.87349e-01
       H -8.11628e+00 -7.07497e+00 -2.40445e-01
       H -8.57100e+00 -5.17673e+00 -2.63508e+00
       O -4.53712e+00 -1.21510e+01 -6.27771e+00
       H -6.01967e+00 -1.11732e+01 -6.62644e+00
       H -3.05230e+00 -1.11215e+01 -6.62221e+00
       O  8.21442e+00 -4.76052e+00 -6.22359e+00
       H  6.65437e+00 -3.72627e+00 -6.51111e+00
       H -7.26099e+00 -3.82228e+00 -6.70220e+00
       O  8.24892e+00 -9.53301e+00 -7.69819e+00
       H  8.56135e+00 -9.60553e+00 -9.49129e+00
       H  8.13059e+00 -7.78327e+00 -7.22164e+00
       O -4.58870e+00 -2.15633e+00 -7.66369e+00
       H -4.31830e+00 -2.12685e+00 -9.52501e+00
       H -4.56530e+00 -3.95326e-01 -7.15764e+00
       O -8.21774e+00 -9.92501e+00  6.74504e-01
       H  7.15353e+00 -1.10397e+01  2.03268e-01
       H -6.64430e+00 -1.08563e+01  1.71776e-01
       O -3.95601e+00 -2.60678e+00  6.71862e-01
       H -5.37675e+00 -3.75211e+00  3.38595e-01
       H -2.59138e+00 -3.58683e+00  3.95880e-01
       O -3.98643e+00 -1.25273e+01  1.30337e+01
       H -4.11260e+00 -1.43430e+01  1.35365e+01
       H -4.07446e+00 -1.26773e+01  1.11781e+01
       O -8.18583e+00 -5.18606e+00  1.30150e+01
       H -8.11267e+00 -7.03930e+00  1.35262e+01
       H -8.39405e+00 -5.18822e+00  1.11525e+01
       O -4.56194e+00 -1.21520e+01  7.64531e+00
       H -5.99590e+00 -1.11042e+01  7.18876e+00
       H -2.96796e+00 -1.09446e+01  7.14961e+00
       O  8.21857e+00 -4.79885e+00  7.58858e+00
       H  6.70724e+00 -3.96870e+00  7.40039e+00
       H -7.29272e+00 -3.72345e+00  7.26939e+00
       O  8.14075e+00 -9.53668e+00  6.13046e+00
       H  8.37849e+00 -9.71544e+00  4.29142e+00
       H  7.87191e+00 -7.67798e+00  6.77454e+00
       O -4.56127e+00 -2.18346e+00  6.11953e+00
       H -4.38477e+00 -2.04014e+00  4.35658e+00
       H -4.51016e+00 -4.17482e-01  6.90357e+00
       O -8.24849e+00  4.79360e+00 -1.32029e+01
       H  7.23177e+00  3.86377e+00 -1.37774e+01
       H -6.84443e+00  3.83420e+00 -1.34002e+01
       O -3.96615e+00  1.21587e+01 -1.32017e+01
       H -5.44295e+00  1.11941e+01 -1.35716e+01
       H -2.27574e+00  1.10533e+01 -1.36015e+01
       O -3.95933e+00  2.19517e+00 -7.93380e-01
       H -4.08756e+00  5.08652e-01 -1.86848e-01
       H -4.27193e+00  2.18602e+00 -2.60604e+00
       O -8.18381e+00  9.52396e+00 -7.49202e-01
       H -8.12467e+00  7.83848e+00 -2.92915e-01
       H -8.33327e+00  9.72569e+00 -2.58566e+00
       O -4.53246e+00  2.57741e+00 -6.29441e+00
       H -6.07012e+00  3.49289e+00 -6.67019e+00
       H -3.09158e+00  3.61570e+00 -6.67634e+00
       O  8.20977e+00  9.94125e+00 -6.27362e+00
       H  6.86500e+00  1.08610e+01 -6.44609e+00
       H -7.23080e+00  1.10734e+01 -6.75931e+00
       O  8.17358e+00  5.21159e+00 -7.73584e+00
       H  8.30667e+00  5.04286e+00 -9.48131e+00
       H  8.25588e+00  7.07050e+00 -7.31970e+00
       O -4.58971e+00  1.25440e+01 -7.70020e+00
       H -4.32947e+00  1.25486e+01 -9.41801e+00
       H -4.69557e+00  1.44222e+01 -7.00831e+00
       O -8.19622e+00  4.80510e+00  6.63523e-01
       H  7.32749e+00  3.76105e+00  1.66475e-01
       H -6.70214e+00  3.65597e+00  2.61052e-01
       O -3.98271e+00  1.21414e+01  6.41211e-01
       H -5.48058e+00  1.10156e+01  1.56461e-01
       H -2.57696e+00  1.12150e+01  5.03243e-01
       O -3.97526e+00  2.14549e+00  1.30039e+01
       H -3.82538e+00  2.88964e-01  1.35360e+01
       H -4.30395e+00  2.26460e+00  1.12394e+01
       O -8.17928e+00  9.52158e+00  1.30528e+01
       H -8.17349e+00  7.70243e+00  1.36193e+01
       H -8.25695e+00  9.54805e+00  1.11379e+01
       O -4.53084e+00  2.59155e+00  7.57786e+00
       H -6.14948e+00  3.51594e+00  7.18113e+00
       H -2.98351e+00  3.73007e+00  7.07917e+00
       O  8.21657e+00  9.93965e+00  7.60198e+00
       H  6.59660e+00  1.11138e+01  7.30692e+00
       H -7.28481e+00  1.09800e+01  7.19215e+00
       O  8.20001e+00  5.18673e+00  6.12614e+00
       H  8.54163e+00  5.42292e+00  4.24030e+00
       H  8.40650e+00  6.92415e+00  6.83015e+00
       O -4.55829e+00  1.25721e+01  6.16198e+00
       H -4.30247e+00  1.27186e+01  4.35634e+00
       H -4.63990e+00  1.43380e+01  6.62840e+00
       O  3.12319e-01 -9.92131e+00 -1.31749e+01
       H -1.29263e+00 -1.09472e+01 -1.34930e+01
       H  1.82301e+00 -1.10947e+01 -1.35613e+01
       O  4.52257e+00 -2.55106e+00 -1.31770e+01
       H  3.13266e+00 -3.60041e+00 -1.35107e+01
       H  5.90503e+00 -3.60128e+00 -1.34459e+01
       O  4.56726e+00 -1.25553e+01 -7.51885e-01
       H  4.50045e+00 -1.43558e+01  5.47382e-03
       H  4.35581e+00 -1.25514e+01 -2.63858e+00
       O  2.97344e-01 -5.19034e+00 -7.41670e-01
       H  2.83322e-01 -6.79979e+00 -2.69504e-01
       H  2.25243e-02 -5.22287e+00 -2.47947e+00
       O  3.98082e+00 -1.21399e+01 -6.23583e+00
       H  2.44576e+00 -1.11637e+01 -6.53131e+00
       H  5.37625e+00 -1.11964e+01 -6.74548e+00
       O -2.95808e-01 -4.78623e+00 -6.26703e+00
       H -1.79680e+00 -3.79648e+00 -6.78656e+00
       H  9.67428e-01 -3.87687e+00 -6.61760e+00
       O -2.83287e-01 -9.53197e+00 -7.70775e+00
       H -7.22140e-02 -9.72214e+00 -9.48402e+00
       H -2.55905e-01 -7.72502e+00 -7.10491e+00
       O  3.90003e+00 -2.18443e+00 -7.72415e+00
       H  4.12397e+00 -2.18888e+00 -9.61693e+00
       H  3.98405e+00 -3.67906e-01 -7.36348e+00
       O  3.19004e-01 -9.91443e+00  6.66065e-01
       H -1.07799e+00 -1.11044e+01  2.21420e-01
       H  1.76231e+00 -1.09157e+01  3.18854e-01
       O  4.54840e+00 -2.56900e+00  6.75752e-01
       H  2.88247e+00 -3.70566e+00  4.11094e-01
       H  5.98448e+00 -3.50034e+00  2.93644e-01
       O  4.58561e+00 -1.25368e+01  1.30634e+01
       H  4.59421e+00 -1.44357e+01  1.37012e+01
       H  4.33591e+00 -1.25811e+01  1.14009e+01
       O  2.84752e-01 -5.18106e+00  1.30967e+01
       H  6.29988e-02 -7.14698e+00  1.35181e+01
       H -6.04651e-02 -5.19409e+00  1.11984e+01
       O  4.00895e+00 -1.21327e+01  7.55111e+00
       H  2.45956e+00 -1.10208e+01  7.37934e+00
       H  5.27822e+00 -1.10294e+01  7.01079e+00
       O -2.33542e-01 -4.81869e+00  7.55342e+00
       H -1.67965e+00 -3.90300e+00  7.16011e+00
       H  1.19108e+00 -3.77591e+00  6.98893e+00
       O -2.94851e-01 -9.52874e+00  6.14951e+00
       H -2.75890e-01 -9.43458e+00  4.21235e+00
       H -3.01792e-01 -7.71432e+00  6.64974e+00
       O  3.95076e+00 -2.18676e+00  6.13304e+00
       H  4.12252e+00 -2.14363e+00  4.44944e+00
       H  3.82428e+00 -3.30984e-01  6.66679e+00
       O  2.40720e-01  4.77785e+00 -1.31461e+01
       H -1.22237e+00  3.87837e+00 -1.37998e+01
       H  1.89580e+00  3.88668e+00 -1.35564e+01
       O  4.52313e+00  1.21169e+01 -1.31801e+01
       H  3.22202e+00  1.09603e+01 -1.38746e+01
       H  5.97578e+00  1.11288e+01 -1.34116e+01
       O  4.51556e+00  2.21578e+00 -7.94475e-01
       H  4.40525e+00  4.29622e-01 -1.39733e-01
       H  4.35618e+00  2.18818e+00 -2.62915e+00
       O  2.88084e-01  9.54308e+00 -7.51823e-01
       H  3.09272e-01  7.74210e+00 -2.31793e-01
       H  4.65475e-02  9.38543e+00 -2.55718e+00
       O  3.94311e+00  2.54029e+00 -6.21851e+00
       H  2.50637e+00  3.70020e+00 -6.61952e+00
       H  5.45476e+00  3.67399e+00 -6.57719e+00
       O -2.75023e-01  9.92776e+00 -6.27390e+00
       H -1.84657e+00  1.09005e+01 -6.65592e+00
       H  1.23978e+00  1.10662e+01 -6.55681e+00
       O -3.03119e-01  5.17542e+00 -7.69440e+00
       H -1.35500e-01  5.15071e+00 -9.52911e+00
       H -2.76801e-01  7.08705e+00 -7.09272e+00
       O  3.93785e+00  1.25788e+01 -7.68592e+00
       H  4.28131e+00  1.26631e+01 -9.62146e+00
       H  3.92420e+00  1.42344e+01 -7.17409e+00
       O  2.83534e-01  4.76218e+00  6.38167e-01
       H -1.26035e+00  3.73175e+00  1.88826e-01
       H  1.86615e+00  3.77644e+00  3.34369e-01
       O  4.48612e+00  1.21268e+01  6.37684e-01
       H  2.99272e+00  1.12183e+01  1.88476e-01
       H  6.13481e+00  1.12073e+01  3.91637e-01
       O  4.56026e+00  2.19579e+00  1.30155e+01
       H  4.59947e+00  3.52512e-01  1.36474e+01
       H  4.40427e+00  2.20127e+00  1.12495e+01
       O  2.81627e-01  9.52204e+00  1.30265e+01
       H  4.69162e-01  7.76737e+00  1.35607e+01
       H  5.31250e-02  9.39928e+00  1.12493e+01
       O  3.93517e+00  2.57508e+00  7.54946e+00
       H  2.47953e+00  3.51732e+00  7.41026e+00
       H  5.59610e+00  3.66244e+00  7.24916e+00
       O -2.66691e-01  9.93693e+00  7.59892e+00
       H -1.77301e+00  1.08199e+01  7.30501e+00
       H  1.15405e+00  1.09181e+01  7.09127e+00
       O -3.20706e-01  5.16674e+00  6.12226e+00
       H -1.76134e-01  5.37061e+00  4.21493e+00
       H -2.33380e-01  6.85296e+00  6.76505e+00
       O  3.99730e+00  1.25475e+01  6.14326e+00
       H  4.05564e+00  1.26164e+01  4.33604e+00
       H  3.78923e+00  1.42930e+01  6.63266e+00
192
# CELL(abcABC):   16.99620    29.43815    27.67315    90.00000    90.00000    90.00000  Step:          20  Bead:       8 positions{atomic_unit}  cell{atomic_unit}
       O -8.17452e+00 -9.96506e+00 -1.31753e+01
       H  7.17163e+00 -1.08704e+01 -1.36429e+01
       H -6.52719e+00 -1.09884e+01 -1.37159e+01
       O -3.95509e+00 -2.54981e+00 -1.31807e+01
       H -5.58740e+00 -3.57974e+00 -1.36833e+01
       H -2.58359e+00 -3.52567e+00 -1.36869e+01
       O -4.01380e+00 -1.25601e+01 -8.17616e-01
       H -3.79843e+00 -1.41795e+01 -2.67787e-02
       H -4.10189e+00 -1.27677e+01 -2.60949e+00
       O -8.24758e+00 -5.14016e+00 -7.85191e-01
       H -8.07801e+00 -6.93692e+00 -3.68610e-01
       H -8.70849e+00 -5.19440e+00 -2.77391e+00
       O -4.52472e+00 -1.21719e+01 -6.23086e+00
       H -6.01555e+00 -1.13075e+01 -6.58730e+00
       H -2.88694e+00 -1.11159e+01 -6.75604e+00
       O  8.23653e+00 -4.77301e+00 -6.27006e+00
       H  6.90837e+00 -3.71740e+00 -6.52179e+00
       H -7.26866e+00 -3.73459e+00 -6.55037e+00
       O  8.23129e+00 -9.55021e+00 -7.68333e+00
       H  8.55960e+00 -9.42660e+00 -9.41107e+00
       H  8.24303e+00 -7.67594e+00 -7.29576e+00
       O -4.60482e+00 -2.20257e+00 -7.66200e+00
       H -4.21034e+00 -2.10963e+00 -9.42341e+00
       H -4.63138e+00 -3.62155e-01 -7.15979e+00
       O -8.23472e+00 -9.92405e+00  6.62575e-01
       H  7.30138e+00 -1.09606e+01  1.89176e-01
       H -6.69457e+00 -1.09030e+01  2.17804e-01
       O -3.95786e+00 -2.57651e+00  6.66322e-01
       H -5.34737e+00 -3.70495e+00  4.28242e-01
       H -2.40445e+00 -3.45323e+00  4.62396e-01
       O -4.00938e+00 -1.24785e+01  1.30655e+01
       H -4.16933e+00 -1.44854e+01  1.34523e+01
       H -4.20923e+00 -1.27658e+01  1.11278e+01
       O -8.19222e+00 -5.19278e+00  1.30492e+01
       H -7.98031e+00 -7.06394e+00  1.33937e+01
       H -8.40350e+00 -5.22530e+00  1.11642e+01
       O -4.54646e+00 -1.21246e+01  7.66538e+00
       H -5.97508e+00 -1.11798e+01  7.14505e+00
       H -2.93351e+00 -1.09539e+01  7.30045e+00
       O  8.25871e+00 -4.77127e+00  7.59480e+00
       H  6.66658e+00 -3.92488e+00  7.32752e+00
       H -7.19933e+00 -3.79101e+00  7.25598e+00
       O  8.12167e+00 -9.52054e+00  6.14501e+00
       H  8.41394e+00 -9.76569e+00  4.22372e+00
       H  7.72730e+00 -7.60102e+00  6.84390e+00
       O -4.59031e+00 -2.11574e+00  6.08754e+00
       H -4.54362e+00 -2.02423e+00  4.34321e+00
       H -4.30275e+00 -4.04979e-01  6.92804e+00
       O -8.28752e+00  4.75542e+00 -1.32278e+01
       H  7.34249e+00  3.85863e+00 -1.37079e+01
       H -6.81893e+00  3.88009e+00 -1.34186e+01
       O -3.98162e+00  1.21544e+01 -1.32044e+01
       H -5.51207e+00  1.14417e+01 -1.36906e+01
       H -2.37103e+00  1.11558e+01 -1.36127e+01
       O -3.95846e+00  2.20479e+00 -7.82068e-01
       H -4.01805e+00  6.93042e-01 -1.66486e-01
       H -4.37430e+00  2.37166e+00 -2.72873e+00
       O -8.19112e+00  9.49317e+00 -7.27715e-01
       H -8.18341e+00  7.82332e+00 -2.50376e-01
       H -8.27485e+00  9.83954e+00 -2.53036e+00
       O -4.49113e+00  2.61200e+00 -6.27044e+00
       H -6.07874e+00  3.55306e+00 -6.71710e+00
       H -3.03581e+00  3.55049e+00 -6.34992e+00
       O  8.23421e+00  9.94028e+00 -6.23967e+00
       H  6.73139e+00  1.08478e+01 -6.41718e+00
       H -7.14134e+00  1.11537e+01 -6.63909e+00
       O  8.16586e+00  5.19984e+00 -7.77228e+00
       H  8.29502e+00  5.01674e+00 -9.51635e+00
       H  8.38008e+00  7.10810e+00 -7.22154e+00
       O -4.64392e+00  1.25455e+01 -7.77437e+00
       H -4.33669e+00  1.24495e+01 -9.33903e+00
       H -4.84410e+00  1.45727e+01 -7.23361e+00
       O -8.18437e+00  4.82453e+00  6.61584e-01
       H  7.26312e+00  3.71400e+00  1.83627e-01
       H -6.74498e+00  3.55927e+00  4.24414e-01
       O -3.96383e+00  1.21446e+01  6.08283e-01
       H -5.47794e+00  1.09451e+01  2.65474e-01
       H -2.60211e+00  1.11536e+01  4.84059e-01
       O -4.01365e+00  2.13306e+00  1.30101e+01
       H -3.76014e+00  2.21765e-01  1.35687e+01
       H -4.49721e+00  2.35558e+00  1.13837e+01
       O -8.15529e+00  9.51270e+00  1.30447e+01
       H -8.30631e+00  7.75420e+00  1.37594e+01
       H -8.28528e+00  9.44483e+00  1.08695e+01
       O -4.53871e+00  2.60774e+00  7.62347e+00
       H -6.25510e+00  3.55399e+00  7.09369e+00
       H -2.87860e+00  3.68565e+00  7.19198e+00
       O  8.25081e+00  9.91689e+00  7.58451e+00
       H  6.44391e+00  1.09816e+01  7.21648e+00
       H -7.38612e+00  1.10382e+01  7.02977e+00
       O  8.19207e+00  5.18496e+00  6.09094e+00
       H  8.54689e+00  5.34903e+00  4.29602e+00
       H  8.31884e+00  6.73473e+00  6.78022e+00
       O -4.56623e+00  1.25812e+01  6.11206e+00
       H -4.13011e+00  1.28613e+01  4.42452e+00
       H -4.65029e+00  1.44491e+01  6.67639e+00
       O  3.25534e-01 -9.90431e+00 -1.31792e+01
       H -1.26201e+00 -1.10261e+01 -1.34185e+01
       H  1.67944e+00 -1.11467e+01 -1.36129e+01
       O  4.55543e+00 -2.52841e+00 -1.31654e+01
       H  3.07614e+00 -3.43248e+00 -1.35044e+01
       H  5.87994e+00 -3.59519e+00 -1.34947e+01
       O  4.58386e+00 -1.25401e+01 -7.80378e-01
       H  4.39637e+00 -1.45438e+01  3.85770e-03
       H  4.29268e+00 -1.26486e+01 -2.61418e+00
       O  2.59434e-01 -5.20150e+00 -7.33940e-01
       H  1.49353e-01 -6.92153e+00 -7.85479e-02
       H -2.09728e-02 -5.36253e+00 -2.48392e+00
       O  4.00951e+00 -1.21070e+01 -6.19385e+00
       H  2.31595e+00 -1.11472e+01 -6.72795e+00
       H  5.29858e+00 -1.12693e+01 -6.89169e+00
       O -3.00691e-01 -4.76794e+00 -6.26546e+00
       H -2.03471e+00 -3.78352e+00 -6.74873e+00
       H  7.96142e-01 -3.89416e+00 -6.58090e+00
       O -2.95816e-01 -9.54360e+00 -7.70316e+00
       H -1.11180e-01 -9.75924e+00 -9.41598e+00
       H -1.51915e-01 -7.65219e+00 -7.07104e+00
       O  3.88042e+00 -2.19286e+00 -7.70926e+00
       H  4.17348e+00 -2.24202e+00 -9.51950e+00
       H  3.73679e+00 -3.85231e-01 -7.30777e+00
       O  3.09964e-01 -9.94225e+00  6.99077e-01
       H -1.15479e+00 -1.10321e+01  1.88339e-01
       H  1.80006e+00 -1.09123e+01  4.56979e-01
       O  4.57815e+00 -2.55807e+00  6.90072e-01
       H  3.01284e+00 -3.77878e+00  5.26618e-01
       H  6.02425e+00 -3.57930e+00  3.71197e-01
       O  4.60874e+00 -1.25364e+01  1.31032e+01
       H  4.42327e+00 -1.46628e+01  1.36164e+01
       H  4.19326e+00 -1.25753e+01  1.13142e+01
       O  3.01458e-01 -5.18728e+00  1.31204e+01
       H -7.36212e-02 -7.07945e+00  1.35801e+01
       H -1.22591e-01 -5.22500e+00  1.11696e+01
       O  3.99918e+00 -1.21629e+01  7.51914e+00
       H  2.31430e+00 -1.10259e+01  7.44496e+00
       H  5.26342e+00 -1.10480e+01  7.13371e+00
       O -2.43281e-01 -4.81361e+00  7.55665e+00
       H -1.77648e+00 -3.85146e+00  7.09532e+00
       H  1.21593e+00 -3.82201e+00  6.88653e+00
       O -2.97962e-01 -9.50775e+00  6.10791e+00
       H -3.54016e-01 -9.44630e+00  4.17252e+00
       H -3.77988e-01 -7.66293e+00  6.59756e+00
       O  3.96165e+00 -2.19013e+00  6.11999e+00
       H  4.15153e+00 -2.07468e+00  4.32890e+00
       H  3.81302e+00 -5.91416e-01  6.69390e+00
       O  2.35813e-01  4.75611e+00 -1.31668e+01
       H -1.11509e+00  3.85265e+00 -1.38537e+01
       H  1.75444e+00  3.87352e+00 -1.36212e+01
       O  4.51104e+00  1.20798e+01 -1.31758e+01
       H  3.34490e+00  1.09597e+01 -1.38675e+01
       H  5.83950e+00  1.11853e+01 -1.33245e+01
       O  4.46267e+00  2.22390e+00 -7.96306e-01
       H  4.60828e+00  6.36565e-01  1.18996e-02
       H  4.31486e+00  2.14900e+00 -2.61895e+00
       O  2.78032e-01  9.50868e+00 -7.29402e-01
       H  4.08114e-01  7.60658e+00 -2.85033e-01
       H  2.01386e-01  9.42772e+00 -2.70174e+00
       O  3.96287e+00  2.55076e+00 -6.18745e+00
       H  2.59379e+00  3.76147e+00 -6.45985e+00
       H  5.39690e+00  3.81371e+00 -6.51701e+00
       O -2.31074e-01  9.93508e+00 -6.25386e+00
       H -1.87575e+00  1.09123e+01 -6.61958e+00
       H  1.24827e+00  1.12864e+01 -6.60366e+00
       O -3.48807e-01  5.13326e+00 -7.69626e+00
       H -1.92908e-01  5.10983e+00 -9.61887e+00
       H -2.38514e-01  7.05381e+00 -6.96476e+00
       O  3.94982e+00  1.25710e+01 -7.69867e+00
       H  4.25754e+00  1.28590e+01 -9.52313e+00
       H  3.91689e+00  1.43290e+01 -7.10962e+00
       O  2.79625e-01  4.75170e+00  6.26803e-01
       H -1.21792e+00  3.53066e+00  2.79197e-01
       H  1.84790e+00  3.73416e+00  3.07710e-01
       O  4.46544e+00  1.21113e+01  6.28135e-01
       H  2.96513e+00  1.12511e+01  2.12911e-01
       H  6.18019e+00  1.13727e+01  4.34015e-01
       O  4.55722e+00  2.22361e+00  1.29969e+01
       H  4.66137e+00  3.01488e-01  1.35595e+01
       H  4.59612e+00  2.11934e+00  1.12365e+01
       O  3.29853e-01  9.49604e+00  1.30037e+01
       H  5.02291e-01  7.68560e+00  1.35805e+01
       H  1.58171e-01  9.41224e+00  1.12289e+01
       O  3.94227e+00  2.55757e+00  7.55688e+00
       H  2.44285e+00  3.41750e+00  7.29994e+00
       H  5.53089e+00  3.57870e+00  7.12847e+00
       O -2.35173e-01  9.89706e+00  7.65390e+00
       H -1.71641e+00  1.07820e+01  7.31915e+00
       H  1.10323e+00  1.08679e+01  7.15725e+00
       O -3.03576e-01  5.17543e+00  6.10724e+00
       H -1.15784e-01  5.13964e+00  4.16106e+00
       H -2.55058e-01  6.92030e+00  6.80495e+00
       O  4.03932e+00  1.25289e+01  6.12567e+00
       H  4.06452e+00  1.27902e+01  4.33041e+00
       H  3.70842e+00  1.43485e+01  6.72157e+00
192
# CELL(abcABC):   16.99620    29.43815    27.67315    90.00000    90.00000    90.00000  Step:          30  Bead:       8 positions{atomic_unit}  cell{atomic_unit}
       O -8.20105e+00 -9.97212e+00 -1.31221e+01
       H  7.03264e+00 -1.09469e+01 -1.36819e+01
       H -6.47774e+00 -1.09896e+01 -1.38144e+01
       O -3.98091e+00 -2.57119e+00 -1.31824e+01
       H -5.71143e+00 -3.53125e+00 -1.37346e+01
       H -2.49451e+00 -3.51029e+00 -1.37214e+01
       O -4.05051e+00 -1.25886e+01 -8.31134e-01
       H -3.74418e+00 -1.41477e+01  6.61802e-02
       H -4.19105e+00 -1.26838e+01 -2.59692e+00
       O -8.26057e+00 -5.09226e+00 -7.72994e-01
       H -7.96279e+00 -6.95281e+00 -4.26435e-01
       H -8.83688e+00 -5.26116e+00 -2.74793e+00
       O -4.49413e+00 -1.22055e+01 -6.21189e+00
       H -6.08238e+00 -1.13887e+01 -6.47945e+00
       H -2.78127e+00 -1.12175e+01 -6.81675e+00
       O  8.24770e+00 -4.77435e+00 -6.29500e+00
       H  7.03259e+00 -3.51221e+00 -6.58793e+00
       H -7.17943e+00 -3.71007e+00 -6.48950e+00
       O  8.19328e+00 -9.52967e+00 -7.67598e+00
       H  8.40446e+00 -9.32863e+00 -9.53221e+00
       H  8.16204e+00 -7.70328e+00 -7.31642e+00
       O -4.58721e+00 -2.20333e+00 -7.64185e+00
       H -4.08281e+00 -2.09177e+00 -9.52937e+00
       H -4.77379e+00 -4.42628e-01 -7.08764e+00
       O -8.29159e+00 -9.87611e+00  6.54680e-01
       H  7.32749e+00 -1.08798e+01  1.21245e-01
       H -6.62472e+00 -1.10368e+01  1.93017e-01
       O -3.94884e+00 -2.58752e+00  6.82308e-01
       H -5.38827e+00 -3.83935e+00  3.85222e-01
       H -2.23167e+00 -3.56824e+00  3.96902e-01
       O -3.97414e+00 -1.24716e+01  1.30476e+01
       H -4.04718e+00 -1.45186e+01  1.34966e+01
       H -4.15194e+00 -1.27144e+01  1.11413e+01
       O -8.16308e+00 -5.17529e+00  1.30237e+01
       H -8.01574e+00 -7.09174e+00  1.32186e+01