192
# CELL(abcABC):   16.99620    29.43815    27.67315    90.00000    90.00000    90.00000  Step:           0  Bead:      30 positions{atomic_unit}  cell{atomic_unit}
       O -8.22215e+00 -9.94239e+00 -1.31733e+01
       H  7.30664e+00 -1.09711e+01 -1.36322e+01
       H -6.70615e+00 -1.09482e+01 -1.35006e+01
       O -3.97298e+00 -2.58228e+00 -1.31734e+01
       H -5.44033e+00 -3.61131e+00 -1.36317e+01
       H -2.45697e+00 -3.58820e+00 -1.35005e+01
       O -3.95756e+00 -1.25543e+01 -7.82386e-01
       H -3.95604e+00 -1.43515e+01 -2.29143e-01
       H -4.14759e+00 -1.25671e+01 -2.59983e+00
       O -8.20667e+00 -5.19495e+00 -7.82227e-01
       H -8.20527e+00 -6.99211e+00 -2.28860e-01
       H -8.39642e+00 -5.20788e+00 -2.59970e+00
       O -4.52495e+00 -1.21366e+01 -6.25523e+00
       H -6.04104e+00 -1.11308e+01 -6.58223e+00
       H -3.05766e+00 -1.11077e+01 -6.71383e+00
       O  8.22247e+00 -4.77716e+00 -6.25561e+00
       H  6.70639e+00 -3.77128e+00 -6.58235e+00
       H -7.30644e+00 -3.74813e+00 -6.71411e+00
       O  8.20650e+00 -9.52435e+00 -7.70064e+00
       H  8.39647e+00 -9.51190e+00 -9.51809e+00
       H  8.20529e+00 -7.72704e+00 -7.14768e+00
       O -4.54027e+00 -2.16431e+00 -7.70075e+00
       H -4.35006e+00 -2.15153e+00 -9.51816e+00
       H -4.54166e+00 -3.67089e-01 -7.14744e+00
       O -8.22211e+00 -9.94193e+00  6.63469e-01
       H  7.30672e+00 -1.09707e+01  2.04633e-01
       H -6.70609e+00 -1.09478e+01  3.36365e-01
       O -3.97290e+00 -2.58257e+00  6.63081e-01
       H -5.44032e+00 -3.61148e+00  2.04655e-01
       H -2.45688e+00 -3.58848e+00  3.35971e-01
       O -3.95760e+00 -1.25545e+01  1.30538e+01
       H -3.95614e+00 -1.43517e+01  1.36071e+01
       H -4.14757e+00 -1.25673e+01  1.12363e+01
       O -8.20656e+00 -5.19529e+00  1.30545e+01
       H -8.20517e+00 -6.99250e+00  1.36078e+01
       H -8.39634e+00 -5.20824e+00  1.12370e+01
       O -4.52490e+00 -1.21367e+01  7.58138e+00
       H -6.04102e+00 -1.11309e+01  7.25435e+00
       H -3.05757e+00 -1.11078e+01  7.12272e+00
       O  8.22232e+00 -4.77760e+00  7.58065e+00
       H  6.70627e+00 -3.77169e+00  7.25392e+00
       H -7.30657e+00 -3.74862e+00  7.12211e+00
       O  8.20656e+00 -9.52478e+00  6.13597e+00
       H  8.39651e+00 -9.51229e+00  4.31849e+00
       H  8.20527e+00 -7.72747e+00  6.68889e+00
       O -4.54025e+00 -2.16471e+00  6.13560e+00
       H -4.34999e+00 -2.15183e+00  4.31818e+00
       H -4.54168e+00 -3.67533e-01  6.68897e+00
       O -8.22212e+00  4.77724e+00 -1.31733e+01
       H  7.30671e+00  3.74833e+00 -1.36320e+01
       H -6.70607e+00  3.77135e+00 -1.35002e+01
       O -3.97288e+00  1.21369e+01 -1.31734e+01
       H -5.44030e+00  1.11079e+01 -1.36317e+01
       H -2.45689e+00  1.11310e+01 -1.35006e+01
       O -3.95757e+00  2.16435e+00 -7.82368e-01
       H -3.95607e+00  3.67109e-01 -2.29207e-01
       H -4.14756e+00  2.15166e+00 -2.59983e+00
       O -8.20667e+00  9.52420e+00 -7.81868e-01
       H -8.20527e+00  7.72699e+00 -2.28645e-01
       H -8.39652e+00  9.51128e+00 -2.59932e+00
       O -4.52494e+00  2.58246e+00 -6.25501e+00
       H -6.04100e+00  3.58821e+00 -6.58223e+00
       H -3.05758e+00  3.61139e+00 -6.71360e+00
       O  8.22236e+00  9.94146e+00 -6.25587e+00
       H  6.70631e+00  1.09474e+01 -6.58279e+00
       H -7.30653e+00  1.09705e+01 -6.71435e+00
       O  8.20665e+00  5.19438e+00 -7.70097e+00
       H  8.39659e+00  5.20693e+00 -9.51844e+00
       H  8.20533e+00  6.99167e+00 -7.14797e+00
       O -4.54026e+00  1.25545e+01 -7.70081e+00
       H -4.34992e+00  1.25674e+01 -9.51823e+00
       H -4.54169e+00  1.43517e+01 -7.14749e+00
       O -8.22210e+00  4.77691e+00  6.62996e-01
       H  7.30665e+00  3.74808e+00  2.04431e-01
       H -6.70613e+00  3.77091e+00  3.36028e-01
       O -3.97279e+00  1.21369e+01  6.63306e-01
       H -5.44019e+00  1.11079e+01  2.05006e-01
       H -2.45681e+00  1.11309e+01  3.36133e-01
       O -3.95757e+00  2.16479e+00  1.30545e+01
       H -3.95616e+00  3.67575e-01  1.36077e+01
       H -4.14769e+00  2.15200e+00  1.12370e+01
       O -8.20659e+00  9.52434e+00  1.30546e+01
       H -8.20522e+00  7.72713e+00  1.36079e+01
       H -8.39644e+00  9.51145e+00  1.12371e+01
       O -4.52499e+00  2.58228e+00  7.58148e+00
       H -6.04100e+00  3.58814e+00  7.25437e+00
       H -3.05766e+00  3.61126e+00  7.12297e+00
       O  8.22229e+00  9.94203e+00  7.58108e+00
       H  6.70627e+00  1.09480e+01  7.25419e+00
       H -7.30655e+00  1.09710e+01  7.12260e+00
       O  8.20668e+00  5.19493e+00  6.13567e+00
       H  8.39670e+00  5.20749e+00  4.31823e+00
       H  8.20535e+00  6.99219e+00  6.68874e+00
       O -4.54018e+00  1.25546e+01  6.13603e+00
       H -4.34989e+00  1.25674e+01  4.31861e+00
       H -4.54161e+00  1.43518e+01  6.68925e+00
       O  2.75877e-01 -9.94198e+00 -1.31737e+01
       H -1.19147e+00 -1.09709e+01 -1.36323e+01
       H  1.79191e+00 -1.09478e+01 -1.35009e+01
       O  4.52479e+00 -2.58220e+00 -1.31736e+01
       H  3.05750e+00 -3.61120e+00 -1.36322e+01
       H  6.04084e+00 -3.58815e+00 -1.35003e+01
       O  4.54038e+00 -1.25538e+01 -7.82378e-01
       H  4.54166e+00 -1.43510e+01 -2.29173e-01
       H  4.35042e+00 -1.25666e+01 -2.59983e+00
       O  2.91382e-01 -5.19489e+00 -7.82498e-01
       H  2.92775e-01 -6.99208e+00 -2.29179e-01
       H  1.01240e-01 -5.20770e+00 -2.59994e+00
       O  3.97307e+00 -1.21369e+01 -6.25482e+00
       H  2.45707e+00 -1.11310e+01 -6.58187e+00
       H  5.44043e+00 -1.11080e+01 -6.71350e+00
       O -2.76167e-01 -4.77714e+00 -6.25484e+00
       H -1.79215e+00 -3.77120e+00 -6.58193e+00
       H  1.19122e+00 -3.74822e+00 -6.71327e+00
       O -2.91294e-01 -9.52406e+00 -7.70061e+00
       H -1.01153e-01 -9.51128e+00 -9.51804e+00
       H -2.92737e-01 -7.72684e+00 -7.14734e+00
       O  3.95740e+00 -2.16468e+00 -7.70029e+00
       H  4.14711e+00 -2.15178e+00 -9.51779e+00
       H  3.95613e+00 -3.67477e-01 -7.14700e+00
       O  2.75838e-01 -9.94166e+00  6.63265e-01
       H -1.19143e+00 -1.09706e+01  2.04532e-01
       H  1.79197e+00 -1.09474e+01  3.36068e-01
       O  4.52471e+00 -2.58218e+00  6.62891e-01
       H  3.05743e+00 -3.61117e+00  2.04240e-01
       H  6.04080e+00 -3.58806e+00  3.36089e-01
       O  4.54037e+00 -1.25543e+01  1.30539e+01
       H  4.54173e+00 -1.43516e+01  1.36070e+01
       H  4.35050e+00 -1.25670e+01  1.12364e+01
       O  2.91297e-01 -5.19502e+00  1.30541e+01
       H  2.92732e-01 -6.99225e+00  1.36074e+01
       H  1.01206e-01 -5.20786e+00  1.12367e+01
       O  3.97310e+00 -1.21368e+01  7.58177e+00
       H  2.45707e+00 -1.11309e+01  7.25464e+00
       H  5.44051e+00 -1.11080e+01  7.12302e+00
       O -2.76100e-01 -4.77767e+00  7.58136e+00
       H -1.79210e+00 -3.77177e+00  7.25428e+00
       H  1.19125e+00 -3.74871e+00  7.12290e+00
       O -2.91340e-01 -9.52458e+00  6.13593e+00
       H -1.01282e-01 -9.51181e+00  4.31852e+00
       H -2.92762e-01 -7.72734e+00  6.68916e+00
       O  3.95728e+00 -2.16475e+00  6.13602e+00
       H  4.14704e+00 -2.15175e+00  4.31853e+00
       H  3.95603e+00 -3.67615e-01  6.68942e+00
       O  2.75872e-01  4.77775e+00 -1.31735e+01
       H -1.19145e+00  3.74868e+00 -1.36320e+01
       H  1.79192e+00  3.77189e+00 -1.35005e+01
       O  4.52473e+00  1.21369e+01 -1.31737e+01
       H  3.05744e+00  1.11080e+01 -1.36325e+01
       H  6.04082e+00  1.11311e+01 -1.35004e+01
       O  4.54033e+00  2.16480e+00 -7.82502e-01
       H  4.54166e+00  3.67553e-01 -2.29384e-01
       H  4.35052e+00  2.15214e+00 -2.60000e+00
       O  2.91442e-01  9.52423e+00 -7.82681e-01
       H  2.92837e-01  7.72701e+00 -2.29452e-01
       H  1.01299e-01  9.51146e+00 -2.60013e+00
       O  3.97319e+00  2.58230e+00 -6.25496e+00
       H  2.45717e+00  3.58819e+00 -6.58198e+00
       H  5.44056e+00  3.61109e+00 -6.71379e+00
       O -2.76125e-01  9.94167e+00 -6.25515e+00
       H -1.79212e+00  1.09476e+01 -6.58222e+00
       H  1.19126e+00  1.09706e+01 -6.71377e+00
       O -2.91369e-01  5.19475e+00 -7.70046e+00
       H -1.01380e-01  5.20765e+00 -9.51793e+00
       H -2.92793e-01  6.99195e+00 -7.14718e+00
       O  3.95737e+00  1.25543e+01 -7.70076e+00
       H  4.14703e+00  1.25673e+01 -9.51824e+00
       H  3.95606e+00  1.43514e+01 -7.14726e+00
       O  2.75794e-01  4.77734e+00  6.62959e-01
       H -1.19152e+00  3.74832e+00  2.04499e-01
       H  1.79186e+00  3.77147e+00  3.35887e-01
       O  4.52464e+00  1.21373e+01  6.62988e-01
       H  3.05745e+00  1.11082e+01  2.04218e-01
       H  6.04076e+00  1.11314e+01  3.36450e-01
       O  4.54041e+00  2.16499e+00  1.30543e+01
       H  4.54178e+00  3.67749e-01  1.36074e+01
       H  4.35054e+00  2.15228e+00  1.12368e+01
       O  2.91308e-01  9.52457e+00  1.30538e+01
       H  2.92715e-01  7.72735e+00  1.36071e+01
       H  1.01225e-01  9.51181e+00  1.12363e+01
       O  3.97315e+00  2.58235e+00  7.58152e+00
       H  2.45713e+00  3.58829e+00  7.25455e+00
       H  5.44048e+00  3.61122e+00  7.12279e+00
       O -2.76008e-01  9.94202e+00  7.58171e+00
       H -1.79205e+00  1.09479e+01  7.25468e+00
       H  1.19134e+00  1.09710e+01  7.12317e+00
       O -2.91416e-01  5.19510e+00  6.13606e+00
       H -1.01371e-01  5.20795e+00  4.31863e+00
       H -2.92777e-01  6.99228e+00  6.68938e+00
       O  3.95729e+00  1.25546e+01  6.13612e+00
       H  4.14688e+00  1.25676e+01  4.31864e+00
       H  3.95603e+00  1.43518e+01  6.68952e+00
192
# CELL(abcABC):   16.99620    29.43815    27.67315    90.00000    90.00000    90.00000  Step:          10  Bead:      30 positions{atomic_unit}  cell{atomic_unit}
       O -8.17461e+00 -9.97201e+00 -1.31800e+01
       H  7.39456e+00 -1.07380e+01 -1.34305e+01
       H -6.65295e+00 -1.11235e+01 -1.34297e+01
       O -3.90070e+00 -2.61167e+00 -1.31511e+01
       H -5.49073e+00 -3.72927e+00 -1.36322e+01
       H -2.53025e+00 -3.80921e+00 -1.34099e+01
       O -3.92473e+00 -1.26163e+01 -8.11112e-01
       H -4.04097e+00 -1.42374e+01 -2.86888e-01
       H -4.12455e+00 -1.23671e+01 -2.63702e+00
       O -8.25135e+00 -5.22641e+00 -8.10520e-01
       H -8.14660e+00 -6.93116e+00 -2.58956e-01
       H -8.43014e+00 -5.06034e+00 -2.57076e+00
       O -4.54944e+00 -1.21615e+01 -6.21202e+00
       H -6.11646e+00 -1.10476e+01 -6.72353e+00
       H -3.08422e+00 -1.10886e+01 -6.68806e+00
       O  8.22378e+00 -4.76616e+00 -6.28138e+00
       H  6.88157e+00 -3.56056e+00 -6.43121e+00
       H -7.30961e+00 -3.78767e+00 -6.78681e+00
       O  8.24955e+00 -9.45807e+00 -7.71407e+00
       H  8.28843e+00 -9.29256e+00 -9.50054e+00
       H  8.18811e+00 -7.63285e+00 -7.08885e+00
       O -4.50611e+00 -2.12050e+00 -7.63738e+00
       H -4.26925e+00 -2.21367e+00 -9.46939e+00
       H -4.68299e+00 -5.27800e-01 -7.09582e+00
       O -8.28282e+00 -9.96143e+00  6.46462e-01
       H  7.23766e+00 -1.12451e+01 -4.24001e-02
       H -6.73589e+00 -1.09878e+01  2.46306e-01
       O -4.00459e+00 -2.61594e+00  7.03988e-01
       H -5.35517e+00 -3.41877e+00  1.29727e-01
       H -2.57842e+00 -3.76661e+00  3.73049e-01
       O -3.92104e+00 -1.25319e+01  1.30393e+01
       H -4.06616e+00 -1.42024e+01  1.36431e+01
       H -4.33100e+00 -1.24661e+01  1.11010e+01
       O -8.23745e+00 -5.17846e+00  1.30605e+01
       H -8.14823e+00 -7.30460e+00  1.36360e+01
       H -8.47592e+00 -5.28116e+00  1.14193e+01
       O -4.56348e+00 -1.21551e+01  7.54346e+00
       H -5.83951e+00 -1.12050e+01  7.04935e+00
       H -3.02841e+00 -1.12205e+01  7.35145e+00
       O  8.30362e+00 -4.83031e+00  7.56130e+00
       H  6.66853e+00 -3.54857e+00  7.41980e+00
       H -7.23883e+00 -3.87168e+00  6.68493e+00
       O  8.32662e+00 -9.46378e+00  6.12716e+00
       H  8.23921e+00 -9.40736e+00  4.42734e+00
       H  7.81963e+00 -7.56975e+00  6.72376e+00
       O -4.48276e+00 -2.19756e+00  6.09341e+00
       H -4.51581e+00 -2.30388e+00  4.18091e+00
       H -4.63178e+00 -3.49639e-01  6.69050e+00
       O -8.18580e+00  4.77898e+00 -1.31775e+01
       H  7.27397e+00  3.60893e+00 -1.37205e+01
       H -6.82158e+00  3.92548e+00 -1.33679e+01
       O -4.07446e+00  1.21676e+01 -1.32158e+01
       H -5.62501e+00  1.09975e+01 -1.37300e+01
       H -2.50013e+00  1.09843e+01 -1.34315e+01
       O -3.87192e+00  2.15271e+00 -8.33571e-01
       H -4.17506e+00  1.89902e-01 -2.05497e-01
       H -4.12252e+00  1.87406e+00 -2.77651e+00
       O -8.25452e+00  9.49709e+00 -8.37717e-01
       H -7.85100e+00  7.79460e+00  2.07601e-03
       H -8.45845e+00  9.52086e+00 -2.67355e+00
       O -4.48729e+00  2.59533e+00 -6.24553e+00
       H -6.15002e+00  3.48362e+00 -6.75970e+00
       H -3.03097e+00  3.21689e+00 -6.76691e+00
       O  8.23158e+00  9.93561e+00 -6.21549e+00
       H  6.49267e+00  1.10733e+01 -6.77972e+00
       H -7.28174e+00  1.08640e+01 -6.59807e+00
       O  8.23121e+00  5.21673e+00 -7.72516e+00
       H  8.34133e+00  5.12649e+00 -9.55287e+00
       H  8.25328e+00  7.16180e+00 -7.17858e+00
       O -4.56117e+00  1.25570e+01 -7.67481e+00
       H -4.53166e+00  1.25217e+01 -9.72493e+00
       H -4.48736e+00  1.42848e+01 -7.19458e+00
       O -8.25527e+00  4.76710e+00  6.13278e-01
       H  7.31907e+00  3.74290e+00  8.08183e-02
       H -6.97414e+00  3.64979e+00  1.03377e-01
       O -3.92094e+00  1.21025e+01  6.70866e-01
       H -5.34156e+00  1.12253e+01  4.03389e-01
       H -2.45021e+00  1.09363e+01  4.06327e-01
       O -3.95462e+00  2.16233e+00  1.30010e+01
       H -3.43771e+00  3.10810e-01  1.38941e+01
       H -4.19698e+00  2.07549e+00  1.12468e+01
       O -8.21845e+00  9.49673e+00  1.30873e+01
       H -8.48745e+00  7.57651e+00  1.36302e+01
       H -8.64250e+00  9.50733e+00  1.12321e+01
       O -4.48762e+00  2.62680e+00  7.54574e+00
       H -6.07021e+00  3.61419e+00  7.22718e+00
       H -3.09459e+00  3.50736e+00  7.11215e+00
       O  8.26199e+00  9.98819e+00  7.57888e+00
       H  6.99704e+00  1.13031e+01  7.38221e+00
       H -7.18783e+00  1.08882e+01  6.98963e+00
       O  8.17403e+00  5.16683e+00  6.12500e+00
       H  8.61178e+00  5.25664e+00  4.09636e+00
       H  8.23230e+00  6.92042e+00  6.70455e+00
       O -4.51970e+00  1.25582e+01  6.07217e+00
       H -4.33775e+00  1.25987e+01  4.15227e+00
       H -4.66457e+00  1.43567e+01  6.64779e+00
       O  2.58732e-01 -9.90506e+00 -1.32027e+01
       H -1.24511e+00 -1.09036e+01 -1.35831e+01
       H  1.83616e+00 -1.09472e+01 -1.33258e+01
       O  4.58139e+00 -2.58591e+00 -1.31282e+01
       H  2.89726e+00 -3.69837e+00 -1.35951e+01
       H  6.33962e+00 -3.42013e+00 -1.35600e+01
       O  4.58779e+00 -1.26001e+01 -8.12791e-01
       H  4.64279e+00 -1.44668e+01 -1.04323e-01
       H  4.76557e+00 -1.23646e+01 -2.57102e+00
       O  2.89335e-01 -5.23449e+00 -7.66582e-01
       H  3.18225e-01 -7.03117e+00 -2.51242e-01
       H -1.17986e-01 -5.02336e+00 -2.63230e+00
       O  3.97547e+00 -1.20864e+01 -6.19491e+00
       H  2.26239e+00 -1.09263e+01 -6.56016e+00
       H  5.39138e+00 -1.11876e+01 -6.91829e+00
       O -2.65882e-01 -4.78290e+00 -6.22793e+00
       H -1.63029e+00 -3.61423e+00 -6.72924e+00
       H  1.63490e+00 -4.00260e+00 -6.51243e+00
       O -2.83069e-01 -9.49576e+00 -7.76750e+00
       H -2.40281e-01 -9.62644e+00 -9.52534e+00
       H -2.33575e-01 -7.78229e+00 -7.30931e+00
       O  3.97201e+00 -2.11785e+00 -7.71564e+00
       H  4.06955e+00 -2.04218e+00 -9.52297e+00
       H  4.05808e+00 -4.45800e-01 -7.16974e+00
       O  2.39989e-01 -9.93528e+00  6.50339e-01
       H -1.32294e+00 -1.10725e+01  1.07757e-01
       H  1.84242e+00 -1.09634e+01  2.08606e-01
       O  4.55409e+00 -2.53984e+00  6.94430e-01
       H  3.06153e+00 -3.64491e+00  1.71971e-01
       H  6.17030e+00 -3.71534e+00  4.46569e-01
       O  4.63729e+00 -1.25060e+01  1.31897e+01
       H  4.73301e+00 -1.44555e+01  1.37305e+01
       H  4.36096e+00 -1.26910e+01  1.10743e+01
       O  3.14317e-01 -5.22466e+00  1.30500e+01
       H  6.49742e-01 -7.09041e+00  1.38002e+01
       H  1.09383e-01 -5.06428e+00  1.12335e+01
       O  3.96214e+00 -1.21517e+01  7.57365e+00
       H  2.90110e+00 -1.08163e+01  7.20618e+00
       H  5.32089e+00 -1.11199e+01  7.52474e+00
       O -2.50536e-01 -4.78604e+00  7.45583e+00
       H -1.94368e+00 -3.72549e+00  7.43945e+00
       H  1.17779e+00 -3.83408e+00  6.92511e+00
       O -3.27927e-01 -9.54066e+00  6.12722e+00
       H -4.27104e-01 -9.54762e+00  4.35404e+00
       H -8.80122e-02 -7.68912e+00  6.81512e+00
       O  3.95446e+00 -2.13477e+00  6.14102e+00
       H  4.13301e+00 -2.01562e+00  4.06886e+00
       H  4.23774e+00 -3.23129e-01  6.83241e+00
       O  2.37678e-01  4.81053e+00 -1.31902e+01
       H -1.08787e+00  3.93832e+00 -1.35015e+01
       H  1.68338e+00  3.74721e+00 -1.34977e+01
       O  4.53411e+00  1.21135e+01 -1.32213e+01
       H  2.96778e+00  1.10829e+01 -1.39144e+01
       H  6.20860e+00  1.14355e+01 -1.35587e+01
       O  4.52413e+00  2.11705e+00 -8.03092e-01
       H  4.70842e+00  4.09383e-01 -3.55920e-02
       H  4.22921e+00  1.99030e+00 -2.58751e+00
       O  3.34045e-01  9.54267e+00 -7.57009e-01
       H  5.23360e-01  7.90478e+00 -3.81491e-01
       H  1.66118e-03  9.58227e+00 -2.46172e+00
       O  4.01703e+00  2.59474e+00 -6.25667e+00
       H  2.68415e+00  3.43955e+00 -6.70128e+00
       H  5.35593e+00  3.66421e+00 -6.25611e+00
       O -2.57579e-01  9.91310e+00 -6.19873e+00
       H -1.86323e+00  1.10324e+01 -6.44779e+00
       H  1.34207e+00  1.09785e+01 -6.71735e+00
       O -3.13245e-01  5.20745e+00 -7.67217e+00
       H -1.66729e-01  5.32929e+00 -9.49585e+00
       H -2.60945e-01  6.98512e+00 -7.13452e+00
       O  4.09556e+00  1.25965e+01 -7.67973e+00
       H  4.26060e+00  1.25841e+01 -9.55972e+00
       H  4.03028e+00  1.41574e+01 -7.02961e+00
       O  2.18561e-01  4.75812e+00  6.57702e-01
       H -1.08567e+00  3.54555e+00  9.79699e-02
       H  1.88701e+00  3.85509e+00  2.02243e-01
       O  4.55134e+00  1.20609e+01  6.78716e-01
       H  3.01588e+00  1.10064e+01  3.58256e-01
       H  5.89420e+00  1.09879e+01  6.71457e-01
       O  4.56418e+00  2.31184e+00  1.30511e+01
       H  4.39831e+00  4.41268e-01  1.37759e+01
       H  4.31793e+00  2.21552e+00  1.10520e+01
       O  2.60145e-01  9.47683e+00  1.30203e+01
       H  4.29736e-01  7.81219e+00  1.34097e+01
       H -8.06150e-02  9.24202e+00  1.11288e+01
       O  4.00937e+00  2.58890e+00  7.57079e+00
       H  2.29856e+00  3.60274e+00  7.05727e+00
       H  5.38788e+00  3.69065e+00  7.15869e+00
       O -1.96185e-01  9.98744e+00  7.63972e+00
       H -1.84908e+00  1.11357e+01  7.21730e+00
       H  1.24692e+00  1.08412e+01  7.09354e+00
       O -3.03102e-01  5.23560e+00  6.14567e+00
       H -5.69210e-02  5.26847e+00  4.16844e+00
       H  7.50116e-02  7.12796e+00  6.62999e+00
       O  4.00283e+00  1.26539e+01  6.09732e+00
       H  4.09071e+00  1.26653e+01  4.47936e+00
       H  3.92762e+00  1.43090e+01  6.57515e+00
192
# CELL(abcABC):   16.99620    29.43815    27.67315    90.00000    90.00000    90.00000  Step:          20  Bead:      30 positions{atomic_unit}  cell{atomic_unit}
       O -8.22682e+00 -9.98876e+00 -1.31751e+01
       H  7.32527e+00 -1.07921e+01 -1.31517e+01
       H -6.65036e+00 -1.13350e+01 -1.33457e+01
       O -3.88635e+00 -2.54718e+00 -1.31528e+01
       H -5.50833e+00 -3.77481e+00 -1.34058e+01
       H -2.33437e+00 -3.75804e+00 -1.33255e+01
       O -3.89071e+00 -1.25723e+01 -8.80015e-01
       H -4.02607e+00 -1.43289e+01 -2.13350e-01
       H -4.36806e+00 -1.23983e+01 -2.69996e+00
       O -8.23018e+00 -5.21318e+00 -7.93512e-01
       H -8.13241e+00 -7.15391e+00 -7.23987e-01
       H -8.56935e+00 -5.12471e+00 -2.74676e+00
       O -4.48840e+00 -1.21390e+01 -6.23879e+00
       H -6.04901e+00 -1.10386e+01 -6.75927e+00
       H -3.04388e+00 -1.11605e+01 -6.61245e+00
       O  8.26313e+00 -4.83660e+00 -6.21088e+00
       H  6.86081e+00 -3.48507e+00 -6.20103e+00
       H -7.29749e+00 -3.78353e+00 -7.02176e+00
       O  8.26542e+00 -9.48847e+00 -7.71391e+00
       H  8.36486e+00 -9.20117e+00 -9.50522e+00
       H  8.18823e+00 -7.70279e+00 -7.09193e+00
       O -4.48958e+00 -2.04521e+00 -7.73028e+00
       H -4.29861e+00 -2.08363e+00 -9.52534e+00
       H -4.57824e+00 -3.60106e-01 -6.87394e+00
       O -8.26351e+00 -9.97588e+00  6.83860e-01
       H  7.37409e+00 -1.09742e+01 -1.09352e-02
       H -6.59285e+00 -1.10930e+01  5.62250e-01
       O -4.05733e+00 -2.62427e+00  7.45608e-01
       H -5.44829e+00 -3.57874e+00  6.82074e-02
       H -2.55894e+00 -3.82264e+00  5.87034e-01
       O -3.96310e+00 -1.24750e+01  1.30323e+01
       H -4.00724e+00 -1.42318e+01  1.34822e+01
       H -4.35917e+00 -1.25056e+01  1.09323e+01
       O -8.26367e+00 -5.13524e+00  1.30504e+01
       H -7.91036e+00 -6.91476e+00  1.34132e+01
       H -8.61400e+00 -5.04147e+00  1.12427e+01
       O -4.55518e+00 -1.21874e+01  7.58935e+00
       H -6.03960e+00 -1.11392e+01  6.91304e+00
       H -3.05582e+00 -1.10542e+01  7.14566e+00
       O  8.32319e+00 -4.83270e+00  7.50797e+00
       H  6.63381e+00 -3.43645e+00  7.54108e+00
       H -7.27176e+00 -3.82959e+00  6.60743e+00
       O  8.28317e+00 -9.37793e+00  6.09632e+00
       H  8.47597e+00 -9.57583e+00  4.33206e+00
       H  7.78915e+00 -7.29834e+00  6.83129e+00
       O -4.50150e+00 -2.25047e+00  6.10805e+00
       H -4.31308e+00 -2.30582e+00  4.36462e+00
       H -4.87272e+00 -4.65005e-01  7.03051e+00
       O -8.17482e+00  4.76871e+00 -1.31830e+01
       H  7.10466e+00  3.80553e+00 -1.33579e+01
       H -6.65521e+00  3.91418e+00 -1.33227e+01
       O -3.98553e+00  1.21027e+01 -1.31703e+01
       H -5.29174e+00  1.12266e+01 -1.38532e+01
       H -2.43257e+00  1.07336e+01 -1.32812e+01
       O -3.81951e+00  2.12272e+00 -8.76724e-01
       H -4.49088e+00  2.96819e-01 -7.12747e-01
       H -4.22747e+00  2.09696e+00 -2.76033e+00
       O -8.27958e+00  9.60107e+00 -8.69622e-01
       H -7.84788e+00  7.63999e+00 -5.21274e-02
       H -8.29006e+00  9.41304e+00 -2.62046e+00
       O -4.52747e+00  2.61003e+00 -6.23518e+00
       H -5.86968e+00  3.83022e+00 -6.64826e+00
       H -3.03388e+00  2.99423e+00 -7.13552e+00
       O  8.18342e+00  9.97117e+00 -6.22383e+00
       H  6.70656e+00  1.08716e+01 -6.86295e+00
       H -7.24430e+00  1.09689e+01 -6.34526e+00
       O  8.28787e+00  5.22343e+00 -7.68294e+00
       H  8.55138e+00  4.99519e+00 -9.66928e+00
       H  8.15373e+00  6.94123e+00 -7.21826e+00
       O -4.58787e+00  1.26101e+01 -7.67533e+00
       H -4.78102e+00  1.24843e+01 -9.69015e+00
       H -4.38118e+00  1.44151e+01 -7.21511e+00
       O -8.22385e+00  4.81482e+00  6.15655e-01
       H  7.26317e+00  3.45228e+00  3.59390e-01
       H -6.81196e+00  3.69099e+00  1.38438e-01
       O -3.99951e+00  1.21516e+01  6.52777e-01
       H -5.31684e+00  1.09134e+01  3.63577e-01
       H -2.38602e+00  1.09642e+01  5.63288e-01
       O -3.98946e+00  2.20750e+00  1.29982e+01
       H -3.38776e+00  1.84116e-01  1.36166e+01
       H -4.55261e+00  2.02580e+00  1.12147e+01
       O -8.25736e+00  9.50473e+00  1.30332e+01
       H -8.71476e+00  7.61206e+00  1.34351e+01
       H -8.37619e+00  9.43414e+00  1.11952e+01
       O -4.47860e+00  2.64230e+00  7.57961e+00
       H -6.20796e+00  3.47350e+00  7.47088e+00
       H -2.82439e+00  3.38351e+00  7.19227e+00
       O  8.27443e+00  9.99622e+00  7.53521e+00
       H  6.97272e+00  1.12681e+01  7.46834e+00
       H -6.97986e+00  1.09560e+01  6.90420e+00
       O  8.17911e+00  5.18461e+00  6.14211e+00
       H  8.39105e+00  5.12724e+00  4.38735e+00
       H  8.12891e+00  7.28359e+00  6.75067e+00
       O -4.50356e+00  1.26217e+01  6.10754e+00
       H -4.46964e+00  1.28326e+01  4.29151e+00
       H -4.58770e+00  1.42616e+01  6.48096e+00
       O  2.20387e-01 -9.87723e+00 -1.32729e+01
       H -1.04024e+00 -1.08510e+01 -1.34689e+01
       H  1.80100e+00 -1.09503e+01 -1.32550e+01
       O  4.51228e+00 -2.56392e+00 -1.30455e+01
       H  3.27737e+00 -3.71061e+00 -1.35826e+01
       H  6.27188e+00 -3.57685e+00 -1.36395e+01
       O  4.63755e+00 -1.27208e+01 -7.89572e-01
       H  4.48597e+00 -1.45069e+01 -1.17326e-01
       H  4.49389e+00 -1.24228e+01 -2.61492e+00
       O  3.06834e-01 -5.14974e+00 -6.74386e-01
       H  2.26979e-01 -6.92641e+00 -2.33620e-01
       H -3.40063e-01 -5.04459e+00 -2.78087e+00
       O  4.00460e+00 -1.21155e+01 -6.24575e+00
       H  2.36444e+00 -1.13203e+01 -6.42424e+00
       H  5.51839e+00 -1.13051e+01 -6.86212e+00
       O -2.73950e-01 -4.81625e+00 -6.22406e+00
       H -2.01334e+00 -3.72666e+00 -6.80541e+00
       H  1.61254e+00 -4.09579e+00 -6.61917e+00
       O -2.94147e-01 -9.54548e+00 -7.78878e+00
       H  3.96981e-02 -9.70784e+00 -9.34631e+00
       H -3.32729e-01 -7.69243e+00 -7.04529e+00
       O  3.98788e+00 -2.13479e+00 -7.66501e+00
       H  4.10662e+00 -2.11784e+00 -9.68847e+00
       H  4.30259e+00 -3.51313e-01 -7.05124e+00
       O  2.27491e-01 -9.89428e+00  6.59595e-01
       H -1.30569e+00 -1.08795e+01 -5.16090e-04
       H  1.73024e+00 -1.09545e+01  4.69762e-01
       O  4.58677e+00 -2.54292e+00  6.78925e-01
       H  3.08051e+00 -3.56390e+00  1.72773e-01
       H  5.75843e+00 -3.70545e+00  5.34834e-01
       O  4.64939e+00 -1.24867e+01  1.32221e+01
       H  4.55367e+00 -1.42829e+01  1.35988e+01
       H  4.35431e+00 -1.23608e+01  1.12680e+01
       O  2.87711e-01 -5.19647e+00  1.30604e+01
       H  5.98742e-01 -7.34381e+00  1.37413e+01
       H  3.57658e-01 -5.22158e+00  1.10349e+01
       O  3.94035e+00 -1.21224e+01  7.53747e+00
       H  2.56035e+00 -1.07258e+01  7.18132e+00
       H  5.20116e+00 -1.09987e+01  7.46104e+00
       O -2.29092e-01 -4.84547e+00  7.43884e+00
       H -1.83799e+00 -3.93272e+00  7.25619e+00
       H  1.44172e+00 -3.79743e+00  7.19427e+00
       O -3.79918e-01 -9.60291e+00  6.15451e+00
       H -6.57124e-01 -9.33939e+00  4.29360e+00
       H  1.94721e-01 -7.71793e+00  6.86608e+00
       O  3.97123e+00 -2.17763e+00  6.05309e+00
       H  4.23427e+00 -2.12107e+00  4.33021e+00
       H  4.53134e+00 -3.07928e-01  6.63805e+00
       O  2.24600e-01  4.78922e+00 -1.30934e+01
       H -1.34424e+00  3.43127e+00 -1.35001e+01
       H  1.81149e+00  3.64049e+00 -1.37052e+01
       O  4.48377e+00  1.21032e+01 -1.31988e+01
       H  3.30006e+00  1.09122e+01 -1.36916e+01
       H  6.23612e+00  1.16076e+01 -1.36787e+01
       O  4.57382e+00  2.15999e+00 -7.28377e-01
       H  4.69824e+00  3.94434e-01 -9.46032e-02
       H  4.10970e+00  1.84085e+00 -2.50425e+00
       O  2.89090e-01  9.48890e+00 -7.16601e-01
       H  4.27115e-01  7.44376e+00 -2.19139e-01
       H  2.50940e-01  9.61814e+00 -2.61674e+00
       O  3.97287e+00  2.59764e+00 -6.15438e+00
       H  2.58863e+00  3.46112e+00 -6.93910e+00
       H  5.49841e+00  3.81173e+00 -6.38388e+00
       O -2.47643e-01  9.88199e+00 -6.27722e+00
       H -1.83492e+00  1.10216e+01 -6.46990e+00
       H  1.27565e+00  1.10502e+01 -6.72493e+00
       O -3.05426e-01  5.15002e+00 -7.68424e+00
       H -1.13188e-01  5.71560e+00 -9.54768e+00
       H -4.57196e-01  6.94732e+00 -7.27050e+00
       O  4.01745e+00  1.25793e+01 -7.77233e+00
       H  4.19544e+00  1.26028e+01 -9.74852e+00
       H  3.98405e+00  1.43785e+01 -7.07405e+00
       O  2.65414e-01  4.68277e+00  6.62759e-01
       H -1.03907e+00  3.32179e+00  7.93838e-02
       H  2.06847e+00  3.93521e+00  3.27527e-01
       O  4.57460e+00  1.20549e+01  5.90887e-01
       H  2.95966e+00  1.10481e+01  3.40388e-01
       H  6.13728e+00  1.12773e+01  5.21750e-01
       O  4.49056e+00  2.30174e+00  1.30815e+01
       H  4.49247e+00  6.39150e-01  1.40188e+01
       H  4.31345e+00  2.41712e+00  1.11553e+01
       O  2.78728e-01  9.49037e+00  1.29734e+01
       H  5.23416e-01  7.63022e+00  1.34819e+01
       H -2.72715e-01  9.43130e+00  1.12887e+01
       O  3.97517e+00  2.61677e+00  7.60445e+00
       H  2.36921e+00  3.70946e+00  7.30958e+00
       H  5.47023e+00  3.76412e+00  7.31961e+00
       O -2.06175e-01  9.98742e+00  7.63749e+00
       H -1.82845e+00  1.11956e+01  7.37023e+00
       H  1.41816e+00  1.10492e+01  6.91371e+00
       O -2.89137e-01  5.18735e+00  6.18888e+00
       H -2.12639e-01  5.43433e+00  4.03792e+00
       H  1.34309e-01  7.12606e+00  6.57950e+00
       O  3.91214e+00  1.26409e+01  6.09488e+00
       H  3.63989e+00  1.26502e+01  4.12470e+00
       H  3.83901e+00  1.43944e+01  6.56362e+00
192
# CELL(abcABC):   16.99620    29.43815    27.67315    90.00000    90.00000    90.00000  Step:          30  Bead:      30 positions{atomic_unit}  cell{atomic_unit}
       O -8.16597e+00 -1.00465e+01 -1.31830e+01
       H  7.24229e+00 -1.08902e+01 -1.34874e+01
       H -6.93846e+00 -1.12294e+01 -1.36351e+01
       O -3.81595e+00 -2.53289e+00 -1.31272e+01
       H -5.18752e+00 -3.68737e+00 -1.32225e+01
       H -2.02875e+00 -3.48974e+00 -1.34103e+01
       O -3.90620e+00 -1.25585e+01 -9.21202e-01
       H -3.83384e+00 -1.44633e+01 -5.95511e-01
       H -4.49661e+00 -1.23018e+01 -3.00829e+00
       O -8.23360e+00 -5.18983e+00 -8.01040e-01
       H -8.53642e+00 -7.21534e+00 -5.19039e-01
       H -8.35101e+00 -4.97151e+00 -2.59703e+00
       O -4.48234e+00 -1.20801e+01 -6.31650e+00
       H -5.96506e+00 -1.11732e+01 -6.66353e+00
       H -3.17560e+00 -1.11761e+01 -6.75440e+00
       O  8.15960e+00 -4.77707e+00 -6.30558e+00
       H  6.67786e+00 -3.51159e+00 -6.34296e+00
       H -7.46295e+00 -3.62417e+00 -7.27177e+00
       O  8.29773e+00 -9.47656e+00 -7.70349e+00
       H  8.13088e+00 -9.22742e+00 -9.45709e+00
       H  8.16981e+00 -7.49390e+00 -6.82814e+00
       O -4.52530e+00 -2.13267e+00 -7.72693e+00
       H -4.15498e+00 -1.94571e+00 -9.52628e+00
       H -4.27243e+00 -1.96327e-01 -6.98581e+00
       O -8.30498e+00 -9.94111e+00  6.74903e-01
       H  7.22244e+00 -1.07463e+01  1.66368e-02
       H -6.70981e+00 -1.08923e+01  9.58231e-02
       O -3.95862e+00 -2.66367e+00  7.93642e-01
       H -5.60194e+00 -3.42262e+00  2.87249e-01
       H -2.39602e+00 -3.89195e+00  5.98024e-01
       O -4.00386e+00 -1.24202e+01  1.30982e+01
       H -4.16695e+00 -1.40362e+01  1.37572e+01
       H -4.22045e+00 -1.23167e+01  1.12126e+01
       O -8.23861e+00 -5.10573e+00  1.30669e+01
       H -8.15318e+00 -6.73673e+00  1.31832e+01