192
# CELL(abcABC):   16.99620    29.43815    27.67315    90.00000    90.00000    90.00000  Step:           0  Bead:       0 positions{atomic_unit}  cell{atomic_unit}
       O -8.22215e+00 -9.94239e+00 -1.31733e+01
       H  7.30664e+00 -1.09711e+01 -1.36322e+01
       H -6.70615e+00 -1.09482e+01 -1.35006e+01
       O -3.97298e+00 -2.58228e+00 -1.31734e+01
       H -5.44033e+00 -3.61131e+00 -1.36317e+01
       H -2.45697e+00 -3.58820e+00 -1.35005e+01
       O -3.95756e+00 -1.25543e+01 -7.82386e-01
       H -3.95604e+00 -1.43515e+01 -2.29143e-01
       H -4.14759e+00 -1.25671e+01 -2.59983e+00
       O -8.20667e+00 -5.19495e+00 -7.82227e-01
       H -8.20527e+00 -6.99211e+00 -2.28860e-01
       H -8.39642e+00 -5.20788e+00 -2.59970e+00
       O -4.52495e+00 -1.21366e+01 -6.25523e+00
       H -6.04104e+00 -1.11308e+01 -6.58223e+00
       H -3.05766e+00 -1.11077e+01 -6.71383e+00
       O  8.22247e+00 -4.77716e+00 -6.25561e+00
       H  6.70639e+00 -3.77128e+00 -6.58235e+00
       H -7.30644e+00 -3.74813e+00 -6.71411e+00
       O  8.20650e+00 -9.52435e+00 -7.70064e+00
       H  8.39647e+00 -9.51190e+00 -9.51809e+00
       H  8.20529e+00 -7.72704e+00 -7.14768e+00
       O -4.54027e+00 -2.16431e+00 -7.70075e+00
       H -4.35006e+00 -2.15153e+00 -9.51816e+00
       H -4.54166e+00 -3.67089e-01 -7.14744e+00
       O -8.22211e+00 -9.94193e+00  6.63469e-01
       H  7.30672e+00 -1.09707e+01  2.04633e-01
       H -6.70609e+00 -1.09478e+01  3.36365e-01
       O -3.97290e+00 -2.58257e+00  6.63081e-01
       H -5.44032e+00 -3.61148e+00  2.04655e-01
       H -2.45688e+00 -3.58848e+00  3.35971e-01
       O -3.95760e+00 -1.25545e+01  1.30538e+01
       H -3.95614e+00 -1.43517e+01  1.36071e+01
       H -4.14757e+00 -1.25673e+01  1.12363e+01
       O -8.20656e+00 -5.19529e+00  1.30545e+01
       H -8.20517e+00 -6.99250e+00  1.36078e+01
       H -8.39634e+00 -5.20824e+00  1.12370e+01
       O -4.52490e+00 -1.21367e+01  7.58138e+00
       H -6.04102e+00 -1.11309e+01  7.25435e+00
       H -3.05757e+00 -1.11078e+01  7.12272e+00
       O  8.22232e+00 -4.77760e+00  7.58065e+00
       H  6.70627e+00 -3.77169e+00  7.25392e+00
       H -7.30657e+00 -3.74862e+00  7.12211e+00
       O  8.20656e+00 -9.52478e+00  6.13597e+00
       H  8.39651e+00 -9.51229e+00  4.31849e+00
       H  8.20527e+00 -7.72747e+00  6.68889e+00
       O -4.54025e+00 -2.16471e+00  6.13560e+00
       H -4.34999e+00 -2.15183e+00  4.31818e+00
       H -4.54168e+00 -3.67533e-01  6.68897e+00
       O -8.22212e+00  4.77724e+00 -1.31733e+01
       H  7.30671e+00  3.74833e+00 -1.36320e+01
       H -6.70607e+00  3.77135e+00 -1.35002e+01
       O -3.97288e+00  1.21369e+01 -1.31734e+01
       H -5.44030e+00  1.11079e+01 -1.36317e+01
       H -2.45689e+00  1.11310e+01 -1.35006e+01
       O -3.95757e+00  2.16435e+00 -7.82368e-01
       H -3.95607e+00  3.67109e-01 -2.29207e-01
       H -4.14756e+00  2.15166e+00 -2.59983e+00
       O -8.20667e+00  9.52420e+00 -7.81868e-01
       H -8.20527e+00  7.72699e+00 -2.28645e-01
       H -8.39652e+00  9.51128e+00 -2.59932e+00
       O -4.52494e+00  2.58246e+00 -6.25501e+00
       H -6.04100e+00  3.58821e+00 -6.58223e+00
       H -3.05758e+00  3.61139e+00 -6.71360e+00
       O  8.22236e+00  9.94146e+00 -6.25587e+00
       H  6.70631e+00  1.09474e+01 -6.58279e+00
       H -7.30653e+00  1.09705e+01 -6.71435e+00
       O  8.20665e+00  5.19438e+00 -7.70097e+00
       H  8.39659e+00  5.20693e+00 -9.51844e+00
       H  8.20533e+00  6.99167e+00 -7.14797e+00
       O -4.54026e+00  1.25545e+01 -7.70081e+00
       H -4.34992e+00  1.25674e+01 -9.51823e+00
       H -4.54169e+00  1.43517e+01 -7.14749e+00
       O -8.22210e+00  4.77691e+00  6.62996e-01
       H  7.30665e+00  3.74808e+00  2.04431e-01
       H -6.70613e+00  3.77091e+00  3.36028e-01
       O -3.97279e+00  1.21369e+01  6.63306e-01
       H -5.44019e+00  1.11079e+01  2.05006e-01
       H -2.45681e+00  1.11309e+01  3.36133e-01
       O -3.95757e+00  2.16479e+00  1.30545e+01
       H -3.95616e+00  3.67575e-01  1.36077e+01
       H -4.14769e+00  2.15200e+00  1.12370e+01
       O -8.20659e+00  9.52434e+00  1.30546e+01
       H -8.20522e+00  7.72713e+00  1.36079e+01
       H -8.39644e+00  9.51145e+00  1.12371e+01
       O -4.52499e+00  2.58228e+00  7.58148e+00
       H -6.04100e+00  3.58814e+00  7.25437e+00
       H -3.05766e+00  3.61126e+00  7.12297e+00
       O  8.22229e+00  9.94203e+00  7.58108e+00
       H  6.70627e+00  1.09480e+01  7.25419e+00
       H -7.30655e+00  1.09710e+01  7.12260e+00
       O  8.20668e+00  5.19493e+00  6.13567e+00
       H  8.39670e+00  5.20749e+00  4.31823e+00
       H  8.20535e+00  6.99219e+00  6.68874e+00
       O -4.54018e+00  1.25546e+01  6.13603e+00
       H -4.34989e+00  1.25674e+01  4.31861e+00
       H -4.54161e+00  1.43518e+01  6.68925e+00
       O  2.75877e-01 -9.94198e+00 -1.31737e+01
       H -1.19147e+00 -1.09709e+01 -1.36323e+01
       H  1.79191e+00 -1.09478e+01 -1.35009e+01
       O  4.52479e+00 -2.58220e+00 -1.31736e+01
       H  3.05750e+00 -3.61120e+00 -1.36322e+01
       H  6.04084e+00 -3.58815e+00 -1.35003e+01
       O  4.54038e+00 -1.25538e+01 -7.82378e-01
       H  4.54166e+00 -1.43510e+01 -2.29173e-01
       H  4.35042e+00 -1.25666e+01 -2.59983e+00
       O  2.91382e-01 -5.19489e+00 -7.82498e-01
       H  2.92775e-01 -6.99208e+00 -2.29179e-01
       H  1.01240e-01 -5.20770e+00 -2.59994e+00
       O  3.97307e+00 -1.21369e+01 -6.25482e+00
       H  2.45707e+00 -1.11310e+01 -6.58187e+00
       H  5.44043e+00 -1.11080e+01 -6.71350e+00
       O -2.76167e-01 -4.77714e+00 -6.25484e+00
       H -1.79215e+00 -3.77120e+00 -6.58193e+00
       H  1.19122e+00 -3.74822e+00 -6.71327e+00
       O -2.91294e-01 -9.52406e+00 -7.70061e+00
       H -1.01153e-01 -9.51128e+00 -9.51804e+00
       H -2.92737e-01 -7.72684e+00 -7.14734e+00
       O  3.95740e+00 -2.16468e+00 -7.70029e+00
       H  4.14711e+00 -2.15178e+00 -9.51779e+00
       H  3.95613e+00 -3.67477e-01 -7.14700e+00
       O  2.75838e-01 -9.94166e+00  6.63265e-01
       H -1.19143e+00 -1.09706e+01  2.04532e-01
       H  1.79197e+00 -1.09474e+01  3.36068e-01
       O  4.52471e+00 -2.58218e+00  6.62891e-01
       H  3.05743e+00 -3.61117e+00  2.04240e-01
       H  6.04080e+00 -3.58806e+00  3.36089e-01
       O  4.54037e+00 -1.25543e+01  1.30539e+01
       H  4.54173e+00 -1.43516e+01  1.36070e+01
       H  4.35050e+00 -1.25670e+01  1.12364e+01
       O  2.91297e-01 -5.19502e+00  1.30541e+01
       H  2.92732e-01 -6.99225e+00  1.36074e+01
       H  1.01206e-01 -5.20786e+00  1.12367e+01
       O  3.97310e+00 -1.21368e+01  7.58177e+00
       H  2.45707e+00 -1.11309e+01  7.25464e+00
       H  5.44051e+00 -1.11080e+01  7.12302e+00
       O -2.76100e-01 -4.77767e+00  7.58136e+00
       H -1.79210e+00 -3.77177e+00  7.25428e+00
       H  1.19125e+00 -3.74871e+00  7.12290e+00
       O -2.91340e-01 -9.52458e+00  6.13593e+00
       H -1.01282e-01 -9.51181e+00  4.31852e+00
       H -2.92762e-01 -7.72734e+00  6.68916e+00
       O  3.95728e+00 -2.16475e+00  6.13602e+00
       H  4.14704e+00 -2.15175e+00  4.31853e+00
       H  3.95603e+00 -3.67615e-01  6.68942e+00
       O  2.75872e-01  4.77775e+00 -1.31735e+01
       H -1.19145e+00  3.74868e+00 -1.36320e+01
       H  1.79192e+00  3.77189e+00 -1.35005e+01
       O  4.52473e+00  1.21369e+01 -1.31737e+01
       H  3.05744e+00  1.11080e+01 -1.36325e+01
       H  6.04082e+00  1.11311e+01 -1.35004e+01
       O  4.54033e+00  2.16480e+00 -7.82502e-01
       H  4.54166e+00  3.67553e-01 -2.29384e-01
       H  4.35052e+00  2.15214e+00 -2.60000e+00
       O  2.91442e-01  9.52423e+00 -7.82681e-01
       H  2.92837e-01  7.72701e+00 -2.29452e-01
       H  1.01299e-01  9.51146e+00 -2.60013e+00
       O  3.97319e+00  2.58230e+00 -6.25496e+00
       H  2.45717e+00  3.58819e+00 -6.58198e+00
       H  5.44056e+00  3.61109e+00 -6.71379e+00
       O -2.76125e-01  9.94167e+00 -6.25515e+00
       H -1.79212e+00  1.09476e+01 -6.58222e+00
       H  1.19126e+00  1.09706e+01 -6.71377e+00
       O -2.91369e-01  5.19475e+00 -7.70046e+00
       H -1.01380e-01  5.20765e+00 -9.51793e+00
       H -2.92793e-01  6.99195e+00 -7.14718e+00
       O  3.95737e+00  1.25543e+01 -7.70076e+00
       H  4.14703e+00  1.25673e+01 -9.51824e+00
       H  3.95606e+00  1.43514e+01 -7.14726e+00
       O  2.75794e-01  4.77734e+00  6.62959e-01
       H -1.19152e+00  3.74832e+00  2.04499e-01
       H  1.79186e+00  3.77147e+00  3.35887e-01
       O  4.52464e+00  1.21373e+01  6.62988e-01
       H  3.05745e+00  1.11082e+01  2.04218e-01
       H  6.04076e+00  1.11314e+01  3.36450e-01
       O  4.54041e+00  2.16499e+00  1.30543e+01
       H  4.54178e+00  3.67749e-01  1.36074e+01
       H  4.35054e+00  2.15228e+00  1.12368e+01
       O  2.91308e-01  9.52457e+00  1.30538e+01
       H  2.92715e-01  7.72735e+00  1.36071e+01
       H  1.01225e-01  9.51181e+00  1.12363e+01
       O  3.97315e+00  2.58235e+00  7.58152e+00
       H  2.45713e+00  3.58829e+00  7.25455e+00
       H  5.44048e+00  3.61122e+00  7.12279e+00
       O -2.76008e-01  9.94202e+00  7.58171e+00
       H -1.79205e+00  1.09479e+01  7.25468e+00
       H  1.19134e+00  1.09710e+01  7.12317e+00
       O -2.91416e-01  5.19510e+00  6.13606e+00
       H -1.01371e-01  5.20795e+00  4.31863e+00
       H -2.92777e-01  6.99228e+00  6.68938e+00
       O  3.95729e+00  1.25546e+01  6.13612e+00
       H  4.14688e+00  1.25676e+01  4.31864e+00
       H  3.95603e+00  1.43518e+01  6.68952e+00
192
# CELL(abcABC):   16.99620    29.43815    27.67315    90.00000    90.00000    90.00000  Step:          10  Bead:       0 positions{atomic_unit}  cell{atomic_unit}
       O -8.25282e+00 -9.93002e+00 -1.32093e+01
       H  7.11750e+00 -1.09428e+01 -1.35368e+01
       H -6.63575e+00 -1.13016e+01 -1.35843e+01
       O -3.86746e+00 -2.59797e+00 -1.32186e+01
       H -5.55732e+00 -3.73981e+00 -1.36997e+01
       H -2.28366e+00 -3.87391e+00 -1.34993e+01
       O -3.93994e+00 -1.26011e+01 -8.10099e-01
       H -4.23726e+00 -1.43365e+01 -3.62178e-01
       H -4.30292e+00 -1.23984e+01 -2.62148e+00
       O -8.18839e+00 -5.20084e+00 -7.25651e-01
       H -8.23537e+00 -6.90826e+00 -3.93790e-01
       H -8.59330e+00 -4.91654e+00 -2.61025e+00
       O -4.52798e+00 -1.21257e+01 -6.23310e+00
       H -6.14176e+00 -1.09704e+01 -6.79686e+00
       H -3.23133e+00 -1.11635e+01 -6.54249e+00
       O  8.20797e+00 -4.79266e+00 -6.25376e+00
       H  6.79400e+00 -3.57419e+00 -6.36484e+00
       H -7.34319e+00 -3.65087e+00 -6.69239e+00
       O  8.22451e+00 -9.51737e+00 -7.67461e+00
       H  8.26242e+00 -9.33524e+00 -9.42900e+00
       H  8.30237e+00 -7.81009e+00 -7.23966e+00
       O -4.48370e+00 -2.13027e+00 -7.65492e+00
       H -4.56312e+00 -2.03801e+00 -9.37639e+00
       H -4.69300e+00 -4.51035e-01 -6.90645e+00
       O -8.26393e+00 -9.91898e+00  6.08654e-01
       H  7.33046e+00 -1.11724e+01  8.42627e-02
       H -6.86620e+00 -1.09578e+01  1.62509e-01
       O -3.96679e+00 -2.66727e+00  7.51174e-01
       H -5.24571e+00 -3.37977e+00  1.37889e-01
       H -2.79976e+00 -3.79958e+00  5.39879e-01
       O -3.92071e+00 -1.25245e+01  1.30391e+01
       H -4.22339e+00 -1.43569e+01  1.35707e+01
       H -4.02598e+00 -1.25610e+01  1.11828e+01
       O -8.24489e+00 -5.16209e+00  1.30504e+01
       H -8.09039e+00 -6.96337e+00  1.36420e+01
       H -8.23270e+00 -5.39974e+00  1.12171e+01
       O -4.57416e+00 -1.21565e+01  7.53544e+00
       H -6.07902e+00 -1.13359e+01  7.27884e+00
       H -2.98219e+00 -1.11011e+01  7.43167e+00
       O  8.25735e+00 -4.76113e+00  7.54422e+00
       H  6.94448e+00 -3.55761e+00  7.27429e+00
       H -7.07877e+00 -3.69338e+00  6.63388e+00
       O  8.21513e+00 -9.43830e+00  6.10494e+00
       H  8.08880e+00 -9.37558e+00  4.27178e+00
       H  8.02232e+00 -7.58063e+00  6.58151e+00
       O -4.51727e+00 -2.15966e+00  6.14424e+00
       H -4.35766e+00 -2.35978e+00  4.29217e+00
       H -4.43833e+00 -4.21946e-01  6.59314e+00
       O -8.18108e+00  4.80070e+00 -1.32366e+01
       H  7.12382e+00  3.70823e+00 -1.35133e+01
       H -6.83644e+00  3.62482e+00 -1.32598e+01
       O -4.00029e+00  1.21548e+01 -1.31625e+01
       H -5.36257e+00  1.11942e+01 -1.35609e+01
       H -2.77459e+00  1.10723e+01 -1.32931e+01
       O -3.90388e+00  2.12772e+00 -8.26124e-01
       H -4.26813e+00  5.80737e-01 -4.62135e-01
       H -4.03055e+00  2.03018e+00 -2.45988e+00
       O -8.28424e+00  9.57630e+00 -7.91076e-01
       H -8.38428e+00  7.55636e+00 -2.62524e-01
       H -8.48048e+00  9.58042e+00 -2.80413e+00
       O -4.49988e+00  2.55353e+00 -6.19211e+00
       H -6.00514e+00  3.49575e+00 -6.80734e+00
       H -3.05295e+00  3.33332e+00 -7.00366e+00
       O  8.17162e+00  9.94138e+00 -6.24241e+00
       H  6.67171e+00  1.10344e+01 -6.71304e+00
       H -7.24454e+00  1.08751e+01 -6.54050e+00
       O  8.26234e+00  5.15772e+00 -7.72396e+00
       H  8.51360e+00  5.40753e+00 -9.50661e+00
       H  8.34028e+00  7.09808e+00 -7.36470e+00
       O -4.56489e+00  1.25667e+01 -7.64620e+00
       H -4.32953e+00  1.24168e+01 -9.46405e+00
       H -4.09042e+00  1.44717e+01 -7.26227e+00
       O -8.25356e+00  4.76818e+00  5.89229e-01
       H  7.44907e+00  3.67924e+00  1.90361e-02
       H -6.92006e+00  3.73466e+00  1.10732e-01
       O -3.95435e+00  1.21354e+01  6.46528e-01
       H -5.32911e+00  1.10788e+01  1.62718e-01
       H -2.53480e+00  1.10734e+01  6.07100e-01
       O -4.03769e+00  2.14230e+00  1.29820e+01
       H -3.66285e+00  1.67397e-01  1.36852e+01
       H -4.10129e+00  2.24400e+00  1.12280e+01
       O -8.31604e+00  9.49798e+00  1.30534e+01
       H -8.64099e+00  7.67994e+00  1.35075e+01
       H -8.56077e+00  9.67015e+00  1.10740e+01
       O -4.52453e+00  2.57529e+00  7.53204e+00
       H -6.09900e+00  3.42757e+00  7.35841e+00
       H -3.00361e+00  3.58498e+00  7.07945e+00
       O  8.25390e+00  9.95415e+00  7.53833e+00
       H  6.84478e+00  1.11975e+01  7.31657e+00
       H -7.30187e+00  1.09614e+01  7.15533e+00
       O  8.17657e+00  5.19521e+00  6.10377e+00
       H  8.45072e+00  5.21181e+00  4.27862e+00
       H  8.29656e+00  6.98084e+00  6.65452e+00
       O -4.50359e+00  1.26141e+01  6.10613e+00
       H -4.55000e+00  1.25333e+01  4.17894e+00
       H -4.61059e+00  1.42861e+01  6.61911e+00
       O  2.34461e-01 -9.84256e+00 -1.31686e+01
       H -1.58259e+00 -1.09196e+01 -1.37931e+01
       H  1.97845e+00 -1.08366e+01 -1.31707e+01
       O  4.52531e+00 -2.57788e+00 -1.31567e+01
       H  3.08506e+00 -4.01737e+00 -1.37511e+01
       H  6.13149e+00 -3.75906e+00 -1.36350e+01
       O  4.56245e+00 -1.25501e+01 -6.97160e-01
       H  4.58657e+00 -1.43526e+01 -4.14070e-01
       H  4.18839e+00 -1.26069e+01 -2.48041e+00
       O  2.27087e-01 -5.13029e+00 -7.90544e-01
       H  1.40638e-01 -7.01289e+00 -3.02823e-01
       H -2.08718e-01 -5.27129e+00 -2.83863e+00
       O  3.94167e+00 -1.20529e+01 -6.24992e+00
       H  2.43956e+00 -1.07252e+01 -6.58721e+00
       H  5.37409e+00 -1.12811e+01 -6.68077e+00
       O -2.85734e-01 -4.82473e+00 -6.27277e+00
       H -1.75305e+00 -3.73265e+00 -6.54573e+00
       H  1.40344e+00 -4.02048e+00 -6.68065e+00
       O -3.69298e-01 -9.52791e+00 -7.71107e+00
       H -1.51267e-01 -9.65657e+00 -9.52462e+00
       H -5.16960e-01 -7.80568e+00 -7.15074e+00
       O  4.06023e+00 -2.22791e+00 -7.78968e+00
       H  3.94516e+00 -1.98270e+00 -9.48801e+00
       H  3.90962e+00 -5.38427e-01 -7.19330e+00
       O  2.10600e-01 -9.97741e+00  6.74624e-01
       H -1.16196e+00 -1.09822e+01  2.01316e-02
       H  1.89312e+00 -1.10276e+01  2.29023e-01
       O  4.51888e+00 -2.53762e+00  7.48229e-01
       H  2.98678e+00 -3.82122e+00  2.53165e-01
       H  6.12053e+00 -3.78986e+00  5.12546e-01
       O  4.57602e+00 -1.25349e+01  1.31360e+01
       H  4.68077e+00 -1.43060e+01  1.37128e+01
       H  4.44006e+00 -1.26681e+01  1.12419e+01
       O  3.40851e-01 -5.20105e+00  1.30634e+01
       H  1.48159e-01 -7.20113e+00  1.34605e+01
       H  9.65710e-02 -5.03402e+00  1.13368e+01
       O  3.93340e+00 -1.21224e+01  7.57088e+00
       H  2.77034e+00 -1.08467e+01  7.33765e+00
       H  5.11868e+00 -1.09205e+01  7.12048e+00
       O -2.91275e-01 -4.84303e+00  7.47917e+00
       H -1.66363e+00 -3.57707e+00  7.19163e+00
       H  1.45149e+00 -3.53801e+00  6.79995e+00
       O -3.67539e-01 -9.49689e+00  6.16467e+00
       H -2.03339e-01 -9.42636e+00  4.18063e+00
       H -7.69952e-02 -7.88414e+00  6.57373e+00
       O  3.99646e+00 -2.15493e+00  6.13396e+00
       H  4.02114e+00 -2.01034e+00  4.15726e+00
       H  4.19828e+00 -4.11782e-01  6.93673e+00
       O  2.42292e-01  4.69331e+00 -1.31183e+01
       H -1.09411e+00  3.89864e+00 -1.37600e+01
       H  1.59121e+00  3.67106e+00 -1.33770e+01
       O  4.55038e+00  1.20891e+01 -1.31922e+01
       H  3.15480e+00  1.11308e+01 -1.37572e+01
       H  6.26216e+00  1.13848e+01 -1.36723e+01
       O  4.54805e+00  2.15722e+00 -8.28630e-01
       H  4.56880e+00  5.30200e-01 -8.70955e-02
       H  4.03604e+00  2.28974e+00 -2.53484e+00
       O  2.63370e-01  9.53697e+00 -6.91452e-01
       H  5.81151e-01  7.64946e+00 -4.78324e-01
       H  4.77738e-01  9.46001e+00 -2.55163e+00
       O  3.98351e+00  2.60001e+00 -6.21322e+00
       H  2.58577e+00  3.39406e+00 -6.51263e+00
       H  5.54247e+00  3.60312e+00 -6.66399e+00
       O -1.83269e-01  9.93758e+00 -6.23503e+00
       H -1.89902e+00  1.10285e+01 -6.79775e+00
       H  1.14078e+00  1.08225e+01 -6.94548e+00
       O -2.82991e-01  5.16127e+00 -7.69957e+00
       H  5.74872e-02  5.31800e+00 -9.66082e+00
       H -4.23081e-01  7.00569e+00 -7.11202e+00
       O  3.98137e+00  1.25512e+01 -7.67850e+00
       H  3.98734e+00  1.24282e+01 -9.46550e+00
       H  3.89521e+00  1.42079e+01 -7.31027e+00
       O  2.87830e-01  4.78622e+00  5.80939e-01
       H -1.06539e+00  3.62722e+00  6.99928e-02
       H  2.09477e+00  3.56844e+00  3.82934e-01
       O  4.51977e+00  1.21503e+01  7.05035e-01
       H  2.99076e+00  1.08140e+01  2.92868e-01
       H  6.17674e+00  1.12430e+01  2.51537e-01
       O  4.49122e+00  2.24272e+00  1.30803e+01
       H  4.49434e+00  5.47575e-01  1.36217e+01
       H  4.48155e+00  1.96564e+00  1.12699e+01
       O  2.84321e-01  9.49233e+00  1.29460e+01
       H  3.00945e-01  7.55352e+00  1.38702e+01
       H -4.97631e-03  9.37751e+00  1.14236e+01
       O  4.00812e+00  2.61395e+00  7.53856e+00
       H  2.41732e+00  3.67243e+00  7.22477e+00
       H  5.52692e+00  3.53334e+00  6.91387e+00
       O -2.29830e-01  9.97614e+00  7.58949e+00
       H -1.95567e+00  1.09093e+01  7.31492e+00
       H  9.13723e-01  1.07866e+01  6.87983e+00
       O -3.33536e-01  5.22034e+00  6.19019e+00
       H -2.42431e-01  5.32936e+00  4.27348e+00
       H  9.85344e-02  7.00054e+00  6.50176e+00
       O  3.96469e+00  1.26561e+01  6.08928e+00
       H  3.93312e+00  1.25815e+01  4.29841e+00
       H  3.81216e+00  1.43684e+01  6.43331e+00
192
# CELL(abcABC):   16.99620    29.43815    27.67315    90.00000    90.00000    90.00000  Step:          20  Bead:       0 positions{atomic_unit}  cell{atomic_unit}
       O -8.14325e+00 -9.98860e+00 -1.31640e+01
       H  7.24966e+00 -1.06783e+01 -1.35957e+01
       H -6.91745e+00 -1.15908e+01 -1.37154e+01
       O -3.87813e+00 -2.57008e+00 -1.31570e+01
       H -5.38706e+00 -3.46998e+00 -1.36844e+01
       H -2.31476e+00 -3.88579e+00 -1.34267e+01
       O -3.84954e+00 -1.26049e+01 -8.46345e-01
       H -4.19444e+00 -1.42758e+01 -5.25576e-01
       H -4.22599e+00 -1.24464e+01 -2.67530e+00
       O -8.19924e+00 -5.17258e+00 -7.42101e-01
       H -8.09008e+00 -7.33511e+00 -2.71623e-01
       H -8.30979e+00 -4.89223e+00 -2.56836e+00
       O -4.50604e+00 -1.21808e+01 -6.20448e+00
       H -6.06276e+00 -1.08540e+01 -6.85070e+00
       H -3.01820e+00 -1.10082e+01 -6.58029e+00
       O  8.18606e+00 -4.80825e+00 -6.27728e+00
       H  6.70818e+00 -3.52055e+00 -6.32951e+00
       H -7.26965e+00 -3.97915e+00 -7.09069e+00
       O  8.21335e+00 -9.46818e+00 -7.67877e+00
       H  8.16100e+00 -9.35006e+00 -9.64577e+00
       H  8.16140e+00 -7.91511e+00 -7.00160e+00
       O -4.49086e+00 -2.09233e+00 -7.65658e+00
       H -4.13932e+00 -1.83427e+00 -9.64957e+00
       H -4.60724e+00 -2.10313e-01 -6.96736e+00
       O -8.27058e+00 -9.90323e+00  6.22206e-01
       H  7.02895e+00 -1.11621e+01 -1.74368e-01
       H -6.70555e+00 -1.09700e+01  3.58537e-01
       O -4.04219e+00 -2.61439e+00  7.42911e-01
       H -5.61028e+00 -3.46160e+00 -1.26441e-01
       H -2.65907e+00 -3.84752e+00  5.96632e-01
       O -3.91994e+00 -1.24675e+01  1.30303e+01
       H -4.29085e+00 -1.42243e+01  1.36349e+01
       H -4.32217e+00 -1.26535e+01  1.12679e+01
       O -8.26506e+00 -5.15990e+00  1.30381e+01
       H -7.86600e+00 -6.86814e+00  1.35593e+01
       H -8.09160e+00 -5.00732e+00  1.11614e+01
       O -4.55665e+00 -1.21818e+01  7.57706e+00
       H -6.24687e+00 -1.13152e+01  7.15026e+00
       H -2.87920e+00 -1.10984e+01  7.38235e+00
       O  8.34467e+00 -4.81784e+00  7.44402e+00
       H  7.06883e+00 -3.62646e+00  7.46742e+00
       H -7.17798e+00 -3.98836e+00  6.80291e+00
       O  8.23049e+00 -9.46548e+00  6.13561e+00
       H  8.21405e+00 -9.58298e+00  4.24134e+00
       H  7.99913e+00 -7.39584e+00  6.74468e+00
       O -4.47817e+00 -2.21191e+00  6.15475e+00
       H -4.41554e+00 -2.28794e+00  4.21025e+00
       H -4.26256e+00 -3.49029e-01  6.96093e+00
       O -8.13386e+00  4.78290e+00 -1.32090e+01
       H  7.35397e+00  3.70089e+00 -1.32572e+01
       H -6.55879e+00  3.74832e+00 -1.32023e+01
       O -3.99260e+00  1.21784e+01 -1.31330e+01
       H -5.54366e+00  1.11275e+01 -1.38588e+01
       H -2.53514e+00  1.09040e+01 -1.35089e+01
       O -3.90438e+00  2.09814e+00 -9.11180e-01
       H -4.45272e+00  3.65195e-01 -6.75040e-01
       H -4.19843e+00  2.05168e+00 -2.82201e+00
       O -8.24278e+00  9.57129e+00 -7.75005e-01
       H -8.04472e+00  7.53774e+00 -6.41416e-02
       H -8.25239e+00  9.43803e+00 -2.77385e+00
       O -4.53257e+00  2.52996e+00 -6.21131e+00
       H -6.01712e+00  3.62242e+00 -6.54854e+00
       H -3.05494e+00  3.11469e+00 -7.13287e+00
       O  8.18432e+00  9.95068e+00 -6.25379e+00
       H  6.51578e+00  1.07850e+01 -6.53383e+00
       H -7.45794e+00  1.10296e+01 -6.53957e+00
       O  8.27483e+00  5.23060e+00 -7.68426e+00
       H  8.37103e+00  5.12611e+00 -9.42407e+00
       H  8.30013e+00  7.07797e+00 -7.22693e+00
       O -4.54970e+00  1.26471e+01 -7.69100e+00
       H -4.63828e+00  1.21684e+01 -9.57891e+00
       H -4.15269e+00  1.43576e+01 -7.35484e+00
       O -8.24778e+00  4.89297e+00  6.41952e-01
       H  7.26010e+00  3.38426e+00  4.50434e-01
       H -6.65916e+00  3.66172e+00  1.73948e-02
       O -3.99827e+00  1.21435e+01  6.80859e-01
       H -5.66835e+00  1.09207e+01  5.14833e-01
       H -2.47970e+00  1.09427e+01  7.10949e-01
       O -4.02399e+00  2.18424e+00  1.30250e+01
       H -3.59477e+00  3.27178e-01  1.37771e+01
       H -4.08317e+00  2.13184e+00  1.10367e+01
       O -8.26695e+00  9.44044e+00  1.30544e+01
       H -8.48700e+00  7.75274e+00  1.35768e+01
       H -8.22084e+00  9.69511e+00  1.12430e+01
       O -4.56947e+00  2.59283e+00  7.58317e+00
       H -6.07272e+00  3.56961e+00  7.28160e+00
       H -2.85238e+00  3.44702e+00  7.18453e+00
       O  8.23631e+00  9.93130e+00  7.55485e+00
       H  6.93686e+00  1.11644e+01  7.37451e+00
       H -7.25196e+00  1.10417e+01  7.29218e+00
       O  8.19764e+00  5.20348e+00  6.18498e+00
       H  8.43264e+00  5.37619e+00  4.36007e+00
       H  8.24860e+00  6.95695e+00  6.77062e+00
       O -4.55851e+00  1.26192e+01  6.16090e+00
       H -4.72423e+00  1.27158e+01  4.28547e+00
       H -4.43075e+00  1.44370e+01  6.68878e+00
       O  2.62403e-01 -9.87531e+00 -1.31601e+01
       H -1.46889e+00 -1.09669e+01 -1.34950e+01
       H  1.93582e+00 -1.08841e+01 -1.31583e+01
       O  4.59613e+00 -2.59700e+00 -1.30915e+01
       H  3.23777e+00 -3.71174e+00 -1.34093e+01
       H  6.30222e+00 -3.72695e+00 -1.35193e+01
       O  4.63559e+00 -1.26570e+01 -6.70318e-01
       H  4.45001e+00 -1.46162e+01 -4.23169e-01
       H  4.36979e+00 -1.24022e+01 -2.40525e+00
       O  3.09460e-01 -5.14611e+00 -7.94689e-01
       H  4.72556e-01 -6.98310e+00 -2.86755e-01
       H -1.93099e-01 -5.07290e+00 -2.64005e+00
       O  3.91898e+00 -1.21009e+01 -6.18408e+00
       H  2.54605e+00 -1.09693e+01 -6.29063e+00
       H  5.51799e+00 -1.15267e+01 -6.71595e+00
       O -2.99704e-01 -4.80060e+00 -6.21483e+00
       H -1.80088e+00 -3.70103e+00 -6.55231e+00
       H  1.58657e+00 -3.92895e+00 -6.55311e+00
       O -3.59163e-01 -9.53031e+00 -7.73879e+00
       H -7.38705e-02 -9.78386e+00 -9.66830e+00
       H -2.48799e-01 -7.64346e+00 -7.19760e+00
       O  4.01614e+00 -2.16447e+00 -7.79774e+00
       H  4.56072e+00 -2.35585e+00 -9.56036e+00
       H  4.36558e+00 -2.29660e-01 -7.06895e+00
       O  1.97619e-01 -9.94535e+00  7.38695e-01
       H -1.50066e+00 -1.10924e+01  9.88221e-02
       H  1.84093e+00 -1.08826e+01  5.68009e-01
       O  4.50730e+00 -2.59146e+00  7.07155e-01
       H  3.11797e+00 -3.70755e+00  3.82918e-01
       H  5.89559e+00 -3.52184e+00  2.97956e-01
       O  4.61749e+00 -1.25229e+01  1.31031e+01
       H  4.56850e+00 -1.42924e+01  1.38511e+01
       H  4.53091e+00 -1.26910e+01  1.12481e+01
       O  3.48951e-01 -5.19145e+00  1.30659e+01
       H  3.93271e-01 -7.33349e+00  1.36190e+01
       H -5.38000e-03 -4.97304e+00  1.12451e+01
       O  3.95422e+00 -1.21439e+01  7.53096e+00
       H  2.68351e+00 -1.07084e+01  7.34300e+00
       H  5.41261e+00 -1.08956e+01  7.37632e+00
       O -2.66429e-01 -4.86533e+00  7.39002e+00
       H -1.78785e+00 -3.64655e+00  7.10166e+00
       H  1.43976e+00 -3.58811e+00  7.01253e+00
       O -3.11486e-01 -9.56754e+00  6.19844e+00
       H -3.41557e-01 -9.60689e+00  4.20759e+00
       H -6.29090e-02 -7.80296e+00  6.74116e+00
       O  3.97823e+00 -2.09412e+00  6.06853e+00
       H  4.50014e+00 -1.73652e+00  4.34848e+00
       H  4.34760e+00 -3.94633e-01  6.94675e+00
       O  2.33849e-01  4.71334e+00 -1.30233e+01
       H -1.49289e+00  3.73083e+00 -1.37686e+01
       H  1.98589e+00  3.73320e+00 -1.36278e+01
       O  4.50139e+00  1.20592e+01 -1.31526e+01
       H  3.08981e+00  1.09159e+01 -1.38782e+01
       H  6.16349e+00  1.15445e+01 -1.36267e+01
       O  4.47542e+00  2.16885e+00 -7.96075e-01
       H  4.39603e+00  3.28259e-01 -2.05615e-01
       H  3.96906e+00  2.39380e+00 -2.53472e+00
       O  2.67422e-01  9.47216e+00 -7.18001e-01
       H  5.80557e-01  7.45357e+00 -2.75039e-01
       H  1.01622e-01  9.58999e+00 -2.53315e+00
       O  4.03104e+00  2.57534e+00 -6.16837e+00
       H  2.17485e+00  3.59566e+00 -6.74947e+00
       H  5.48248e+00  3.95078e+00 -6.19093e+00
       O -2.37953e-01  9.96043e+00 -6.28897e+00
       H -1.77066e+00  1.10165e+01 -6.86135e+00
       H  1.42196e+00  1.08009e+01 -7.02813e+00
       O -2.88656e-01  5.21600e+00 -7.67797e+00
       H  4.23596e-03  5.76622e+00 -9.26376e+00
       H -7.50356e-02  7.06349e+00 -7.36487e+00
       O  4.01987e+00  1.26064e+01 -7.67331e+00
       H  4.08594e+00  1.27153e+01 -9.40398e+00
       H  3.89414e+00  1.44208e+01 -7.21529e+00
       O  2.28081e-01  4.66652e+00  6.16756e-01
       H -1.05925e+00  3.29219e+00  2.15335e-01
       H  1.97308e+00  3.69890e+00  5.29919e-01
       O  4.54239e+00  1.20778e+01  6.59099e-01
       H  2.95652e+00  1.08473e+01  2.23500e-01
       H  6.11788e+00  1.13020e+01  3.98642e-01
       O  4.55120e+00  2.27685e+00  1.30825e+01
       H  4.60343e+00  5.63613e-01  1.40509e+01
       H  4.17514e+00  2.05046e+00  1.10135e+01
       O  2.87064e-01  9.42425e+00  1.29186e+01
       H -5.38014e-02  7.81656e+00  1.36946e+01
       H -4.63745e-01  9.16358e+00  1.10876e+01
       O  3.95204e+00  2.63404e+00  7.59878e+00
       H  2.44459e+00  3.73005e+00  7.29578e+00
       H  5.58665e+00  3.53288e+00  6.98034e+00
       O -2.50066e-01  9.88070e+00  7.67543e+00
       H -1.91657e+00  1.11960e+01  7.32452e+00
       H  8.69352e-01  1.09631e+01  6.71510e+00
       O -3.42898e-01  5.21613e+00  6.14060e+00
       H -3.30874e-01  5.43965e+00  4.19300e+00
       H  1.47970e-01  7.16995e+00  6.74884e+00
       O  3.96604e+00  1.26274e+01  6.06700e+00
       H  3.78126e+00  1.27728e+01  4.05972e+00
       H  3.76663e+00  1.43745e+01  6.52341e+00
192
# CELL(abcABC):   16.99620    29.43815    27.67315    90.00000    90.00000    90.00000  Step:          30  Bead:       0 positions{atomic_unit}  cell{atomic_unit}
       O -8.13471e+00 -1.00260e+01 -1.30741e+01
       H  7.35738e+00 -1.06850e+01 -1.35660e+01
       H -7.01851e+00 -1.11671e+01 -1.35047e+01
       O -3.83535e+00 -2.55832e+00 -1.30738e+01
       H -5.03189e+00 -3.80981e+00 -1.34663e+01
       H -2.38169e+00 -3.64758e+00 -1.31962e+01
       O -3.81803e+00 -1.25899e+01 -8.57710e-01
       H -4.04971e+00 -1.46753e+01 -2.90658e-01
       H -4.16462e+00 -1.24227e+01 -2.58677e+00
       O -8.21802e+00 -5.18634e+00 -8.00386e-01
       H -8.31091e+00 -7.30375e+00 -4.15225e-01
       H -8.50397e+00 -5.09502e+00 -2.50908e+00
       O -4.52105e+00 -1.21709e+01 -6.23505e+00
       H -6.00572e+00 -1.11173e+01 -6.81375e+00
       H -2.81956e+00 -1.09751e+01 -6.73559e+00
       O  8.20826e+00 -4.76831e+00 -6.31150e+00
       H  6.90828e+00 -3.43129e+00 -6.45997e+00
       H -7.40978e+00 -3.89872e+00 -7.15562e+00
       O  8.22694e+00 -9.47924e+00 -7.76320e+00
       H  8.22905e+00 -9.28098e+00 -9.70417e+00
       H  7.92307e+00 -7.52622e+00 -6.99032e+00
       O -4.54674e+00 -2.08954e+00 -7.73354e+00
       H -4.39109e+00 -1.90941e+00 -9.72233e+00
       H -4.47829e+00  2.54142e-02 -6.77468e+00
       O -8.29926e+00 -9.95747e+00  5.76082e-01
       H  7.23929e+00 -1.09650e+01  1.12735e-01
       H -6.47495e+00 -1.08043e+01  3.88094e-01
       O -4.01249e+00 -2.66915e+00  8.05887e-01
       H -5.43699e+00 -3.45459e+00  1.10100e-01
       H -2.57068e+00 -3.77502e+00  7.05281e-01
       O -3.99816e+00 -1.24220e+01  1.30679e+01
       H -4.07258e+00 -1.39967e+01  1.39284e+01
       H -4.40241e+00 -1.26451e+01  1.10440e+01
       O -8.21980e+00 -5.17870e+00  1.29791e+01
       H -7.93874e+00 -7.00940e+00  1.34469e+01