192
# CELL(abcABC):   16.99620    29.43815    27.67315    90.00000    90.00000    90.00000  Step:           0  Bead:      27 velocities{atomic_unit}  cell{atomic_unit}
       O  9.67885e-04 -4.43631e-04  5.99273e-05
       H -3.97131e-04  3.68946e-03  4.56971e-03
       H  5.73474e-04 -1.28038e-03 -3.45504e-03
       O  8.30608e-04  2.02635e-04  7.30368e-04
       H -1.14560e-03 -6.51249e-04  1.93722e-03
       H  7.52053e-04  1.13644e-03  2.03577e-03
       O -1.00432e-03  6.69034e-04 -5.77469e-04
       H  3.70883e-04  6.94179e-03 -2.88803e-03
       H -2.08418e-03 -2.05752e-03 -3.29927e-03
       O  1.73150e-04 -1.16425e-03 -7.70086e-05
       H -4.31457e-03  2.10604e-03  6.46341e-03
       H  3.70448e-03  2.65198e-03  2.19806e-03
       O -1.92504e-04  2.36579e-04 -8.11120e-04
       H -5.08444e-04 -6.25817e-03  1.65280e-03
       H  3.11946e-03  3.14355e-03 -4.68161e-03
       O  1.54102e-03  5.78946e-04 -7.06436e-04
       H  9.61058e-04 -3.36148e-03 -4.41906e-03
       H -2.06520e-03  1.00319e-04 -4.03601e-03
       O  2.20510e-04 -3.12962e-05  2.12515e-04
       H  6.25478e-04 -1.64283e-03  3.04454e-03
       H -1.10045e-03  1.73893e-04  6.31683e-03
       O -7.12769e-04 -7.87723e-04  9.05102e-04
       H -2.95144e-03 -1.81507e-03  4.01441e-03
       H -1.28904e-03 -8.06884e-03 -3.85586e-04
       O -9.41492e-04  8.80474e-04  1.93401e-03
       H -3.15122e-03  3.22251e-03  4.11126e-03
       H  3.89391e-03  6.46367e-03 -3.66223e-04
       O  3.76247e-04  2.58355e-04  1.30838e-03
       H  1.03838e-04 -1.33561e-03 -4.07366e-03
       H -3.47436e-04 -1.75596e-04 -5.78805e-05
       O  1.71519e-04 -6.19274e-04  8.34485e-04
       H  1.09643e-03  2.77223e-04  2.37654e-03
       H -1.26427e-03  2.02535e-03  2.26757e-03
       O  6.49589e-04  7.41408e-04 -8.22885e-05
       H -1.98382e-03 -6.20972e-04  4.02143e-03
       H  1.52179e-03 -4.24093e-04  6.69334e-03
       O -3.88847e-05 -2.81304e-04 -6.33722e-04
       H  4.17008e-03 -1.13888e-03 -4.17616e-04
       H -3.92910e-03  1.54204e-03 -8.79507e-03
       O -1.72047e-03 -2.70797e-04 -1.73332e-03
       H  2.51144e-03  4.72951e-03 -3.69577e-03
       H  2.48208e-03  3.04506e-03 -6.67849e-03
       O -8.51635e-05 -6.37248e-04  1.28877e-05
       H  4.88401e-03 -5.46408e-03  4.00923e-03
       H -1.81259e-03  5.44483e-04  3.47708e-03
       O -1.12880e-03 -5.30568e-04 -1.97291e-06
       H -2.66910e-03  8.15142e-03  4.03816e-03
       H -9.16731e-03 -5.32054e-03  6.04287e-03
       O  5.39832e-04 -6.78365e-04 -4.58702e-05
       H -6.59629e-03  1.30244e-03  5.73472e-04
       H -2.70806e-03  2.93224e-04 -5.88795e-03
       O -1.10271e-04  3.77115e-04  1.07347e-04
       H  3.85961e-03 -6.90383e-03  2.03889e-03
       H -8.20215e-03 -7.96047e-04  5.39948e-03
       O  4.08155e-04  2.65795e-04 -5.33385e-04
       H -1.77273e-04 -1.47992e-04 -1.33291e-03
       H  2.59210e-03 -5.81033e-03 -2.19470e-03
       O -1.16693e-03 -3.32536e-04  6.35539e-05
       H  5.51583e-03  7.28704e-03  1.13246e-04
       H  6.32512e-03  2.25577e-03 -1.92422e-03
       O -5.69414e-05 -9.10898e-04 -4.42104e-04
       H -4.50619e-03 -2.92804e-03  2.89677e-03
       H  2.23299e-03 -3.12560e-03  1.39726e-03
       O -8.81270e-04 -1.04027e-03  1.57923e-04
       H  1.18634e-03 -2.80584e-03 -2.81910e-03
       H  2.65957e-03  1.61871e-03 -3.49155e-03
       O  8.66189e-04  7.47458e-04 -2.14028e-04
       H  4.46500e-03  1.84648e-03  4.54395e-03
       H -4.80777e-03  2.74543e-03  2.66032e-03
       O -1.47136e-04 -2.72388e-04  4.96074e-05
       H  5.63974e-03  3.73136e-03 -4.08997e-03
       H  4.26750e-03 -3.63048e-03 -3.33009e-03
       O -3.11311e-04 -1.28376e-03 -3.46824e-04
       H  7.98486e-03 -8.17601e-04  4.13834e-03
       H -9.89820e-04 -2.23316e-03 -2.53720e-03
       O  4.69080e-04 -1.13858e-03 -1.40492e-03
       H -3.26705e-03 -3.22301e-03  9.66427e-04
       H -3.85096e-03 -8.13548e-04  2.62688e-03
       O -2.51244e-04 -5.93239e-04 -4.81267e-04
       H  2.50569e-04 -4.66221e-03 -9.00142e-03
       H -4.70255e-03 -1.64117e-03  3.34441e-03
       O -2.40290e-04 -2.46482e-04  9.49504e-04
       H -3.77620e-04  3.61761e-03  5.00041e-04
       H -4.48802e-03 -2.67234e-03 -3.77310e-04
       O  7.52899e-04  4.70168e-04 -1.03148e-03
       H -2.47309e-03 -3.69257e-03 -2.36182e-03
       H  2.07798e-03 -2.05644e-03  4.38515e-03
       O  9.23000e-04 -1.71010e-04  9.51110e-04
       H  8.15765e-04 -2.07894e-03  4.90794e-03
       H -1.37386e-03  1.52145e-03 -5.15308e-03
       O  6.53775e-05  1.04319e-03 -2.01956e-05
       H -3.73786e-03 -1.86609e-03 -2.24238e-03
       H  2.60130e-03  1.60438e-03 -1.25250e-03
       O -8.70531e-04  8.84556e-06 -1.81047e-03
       H -1.36608e-03  1.71314e-03  6.30751e-04
       H  1.24876e-03 -2.53564e-03 -6.10106e-03
       O -1.45928e-04  8.58326e-04  3.01119e-06
       H -4.19289e-03  3.25856e-03  1.40212e-03
       H  2.34604e-03 -5.87844e-03 -1.02523e-03
       O  1.00680e-04 -3.76421e-04 -3.42785e-04
       H -1.61270e-04  2.60928e-03 -1.25198e-03
       H -4.67719e-03 -5.18874e-03  3.92685e-03
       O  1.24566e-03  1.11239e-03  3.59495e-04
       H  4.46182e-03 -1.68492e-03 -1.25283e-03
       H -2.17370e-03  5.91593e-03 -9.23730e-03
       O -2.30804e-03 -1.97596e-04  1.23503e-03
       H  9.95836e-04 -3.89927e-03 -1.32914e-03
       H -1.08874e-05  1.08559e-03  2.65992e-03
       O -8.30632e-04  2.27100e-04  5.54559e-04
       H -1.68240e-05 -1.37293e-03  4.57902e-03
       H -2.38206e-03 -2.58470e-03  4.61977e-03
       O  5.45448e-04  1.13373e-04  1.30013e-03
       H -1.99369e-03 -1.89649e-03 -5.93970e-03
       H -2.05929e-03 -1.88771e-03 -1.11938e-05
       O  2.49956e-04  2.47170e-03 -9.53826e-04
       H -1.78519e-03  8.66628e-04  6.38796e-03
       H -1.70269e-03  1.36912e-03 -1.15309e-03
       O -9.48549e-04  1.62665e-03 -6.07013e-04
       H  3.21655e-03 -1.73151e-03  5.42095e-03
       H  9.37192e-03 -6.80591e-03 -1.66772e-04
       O  3.06087e-04  1.78912e-04 -4.74254e-04
       H -9.19866e-04 -1.55841e-03  5.74834e-03
       H -4.87374e-03  1.22910e-03  3.82453e-03
       O  1.52466e-03 -7.65125e-05 -3.92803e-04
       H -3.05681e-03 -8.11623e-04  5.23417e-03
       H -5.75098e-03  6.52136e-03 -9.56883e-05
       O  3.29707e-04  1.31617e-03  9.13930e-04
       H  1.01545e-03  5.40736e-03  1.14585e-03
       H  1.95126e-03 -8.77816e-04 -7.56445e-03
       O  8.61479e-04  3.87584e-04 -8.40172e-04
       H -3.26426e-03 -8.36972e-03  2.19405e-03
       H  2.51278e-03  1.62295e-03  1.95912e-03
       O  8.61529e-04 -1.25665e-03  2.21417e-04
       H  2.88450e-03 -2.01716e-03 -1.37022e-03
       H -8.43090e-03 -3.41578e-03  6.52312e-03
       O -4.06911e-04 -7.99807e-04 -1.47860e-03
       H  3.16781e-03 -3.02755e-03  9.39141e-03
       H  1.74894e-03 -3.49340e-03 -2.10635e-03
       O -2.86794e-05 -1.42072e-03  2.15761e-04
       H  1.17088e-03  2.43251e-03 -6.68905e-03
       H  4.50781e-04  1.59157e-03 -1.64044e-03
       O  6.89638e-04 -1.10285e-03 -9.51345e-04
       H  2.35134e-03 -5.36239e-03  4.81964e-03
       H -6.32686e-04  3.63134e-03 -3.46676e-04
       O -7.71129e-04 -1.15117e-05  3.81542e-04
       H -2.39897e-03  5.66555e-03  5.55088e-04
       H -6.67792e-03 -3.20941e-03 -3.14973e-03
       O  4.30957e-04 -1.04054e-03  6.98469e-05
       H  9.05967e-04  1.08599e-03 -2.44334e-03
       H  1.36310e-03 -1.35697e-03  1.77868e-03
       O  8.45230e-05 -1.13781e-03 -6.67084e-04
       H  2.46132e-04  2.81223e-03  6.81859e-04
       H  1.05259e-02  2.45896e-03  4.72397e-04
       O  2.03995e-04  9.53134e-04 -1.18482e-03
       H -1.58017e-03  3.93152e-03  4.90745e-03
       H -4.90792e-05  2.04861e-03 -2.04687e-04
       O  6.75598e-04  7.26667e-05 -1.35684e-03
       H  1.02424e-03 -3.32377e-04 -1.00957e-03
       H -5.50837e-04 -1.48783e-04 -4.00032e-03
       O -2.22514e-04  1.97098e-03 -1.56204e-04
       H -3.69191e-03 -5.14862e-03  1.11577e-03
       H -6.00172e-03 -9.38672e-04  1.68250e-03
       O -9.62924e-04 -7.19809e-04 -1.43818e-03
       H  4.71859e-03 -3.81364e-03  4.79128e-03
       H -1.90821e-03 -5.99412e-04  2.09030e-03
       O  1.07588e-03  4.75007e-04 -9.42991e-04
       H  6.95189e-04 -7.85231e-03  4.26290e-03
       H  4.12729e-03  8.36886e-04  5.12896e-03
       O  8.81307e-04  1.65567e-04  6.81502e-04
       H  5.21765e-03 -2.94753e-03  7.97651e-04
       H -7.00868e-03  2.81027e-04 -5.62575e-04
       O  8.73822e-04 -1.26896e-03  1.03877e-03
       H  4.12006e-03 -3.93639e-04  1.56193e-04
       H  3.25773e-03 -2.47981e-03 -5.40710e-03
       O  1.31290e-03  1.79036e-04  5.19098e-04
       H  8.19613e-03  1.00806e-03 -3.36819e-03
       H -1.73361e-05 -1.15625e-03 -3.18118e-03
       O  6.52570e-04 -1.28312e-03 -3.23818e-04
       H -3.13504e-04 -4.02494e-04 -1.57777e-03
       H -4.07349e-03 -5.98096e-03 -2.14205e-03
       O  6.09850e-04 -2.10362e-04  9.03078e-04
       H  7.43460e-04  3.11358e-03  6.64779e-03
       H  2.86873e-03  4.91869e-03  7.64293e-04
       O -6.44873e-04 -3.57365e-04 -4.12120e-05
       H  6.03724e-03  3.95380e-03 -3.78718e-03
       H  2.29457e-03 -2.86643e-03 -4.06854e-03
       O  6.33867e-04 -3.30764e-04 -2.19039e-04
       H -2.28725e-03 -6.24180e-04  4.19883e-03
       H  1.15182e-03  3.62969e-03  3.74530e-03
       O  1.87301e-03 -8.83236e-04 -8.19524e-04
       H -3.97403e-03  6.80532e-03 -5.71909e-05
       H  4.28969e-03  1.87680e-03 -5.17381e-04
192
# CELL(abcABC):   16.99620    29.43815    27.67315    90.00000    90.00000    90.00000  Step:          10  Bead:      27 velocities{atomic_unit}  cell{atomic_unit}
       O  7.38596e-04 -1.72638e-03  5.98240e-04
       H -4.02588e-03  4.48262e-03  2.80043e-05
       H -6.39575e-03 -4.26615e-03  6.80034e-04
       O  6.82843e-04 -9.46519e-04  4.45515e-04
       H  5.50333e-03 -5.22305e-04 -7.15947e-04
       H  2.18853e-04 -4.77789e-03  2.27272e-03
       O  1.10217e-03  3.99355e-04  5.48257e-04
       H -6.02245e-03 -2.98393e-03  1.80689e-03
       H  2.34981e-03  2.56722e-03  1.02224e-03
       O -1.20738e-03  3.48035e-04  1.91291e-04
       H  4.17005e-03 -3.44559e-03 -2.69642e-04
       H -1.00730e-03  2.68960e-04  5.37347e-04
       O -7.87762e-04 -5.97535e-04  5.72284e-04
       H -5.69951e-04 -7.11594e-04  2.43191e-04
       H -7.38285e-03  1.21455e-03  3.27189e-03
       O  1.60742e-03 -2.45818e-04  6.14460e-04
       H -3.72043e-03 -6.58195e-04  2.49420e-03
       H  4.17646e-04  5.23576e-04 -4.55527e-03
       O  4.12174e-04  9.97995e-04  1.41019e-04
       H  9.73853e-04 -2.78859e-04 -3.84241e-03
       H  1.31965e-03  2.19018e-03 -3.49557e-03
       O  1.09407e-03  1.08516e-03 -6.26045e-04
       H  2.19639e-04  3.81227e-03  3.45708e-03
       H  2.87762e-04 -4.50354e-03 -6.06869e-04
       O -1.58839e-04  1.08915e-03  6.31596e-05
       H  8.46507e-04 -1.85657e-03  1.59513e-04
       H -1.19097e-03  5.77679e-04  5.33387e-04
       O  2.04937e-04 -1.32337e-03  8.42094e-04
       H -5.40888e-03 -2.27373e-03  2.39778e-03
       H  2.35803e-03  1.45706e-03  5.54218e-03
       O -4.59433e-04  8.35155e-05  2.71069e-04
       H -9.53407e-04  6.64169e-03 -1.68256e-03
       H -3.78542e-03 -2.79978e-03  1.57133e-04
       O -1.26533e-03 -5.34487e-04  6.32993e-04
       H  3.98538e-03 -1.61121e-03  8.49135e-04
       H -4.48394e-04 -2.86463e-03  3.95578e-03
       O -1.59106e-03 -4.97346e-04  7.91890e-05
       H  2.28846e-03 -7.55420e-03  1.34674e-03
       H  2.96162e-03  1.50884e-03  4.90123e-03
       O -9.32973e-05  1.08158e-03  1.67741e-03
       H -7.31521e-04  3.90785e-03  1.25378e-03
       H -1.57344e-03 -5.36858e-03 -4.69134e-04
       O -1.16400e-04 -1.05893e-03  1.99522e-03
       H -2.57174e-03  8.95458e-03 -2.15029e-03
       H  1.42572e-03  2.37267e-03 -1.06275e-03
       O -1.69521e-03 -1.02950e-03  4.12439e-04
       H -1.58097e-03 -4.95584e-03  2.40586e-03
       H -2.07165e-03 -7.91526e-04  1.65169e-03
       O -2.53195e-04  7.74298e-04 -1.30470e-03
       H -5.62992e-04 -5.19643e-03 -3.05404e-03
       H  6.20846e-04  2.83722e-03 -2.06042e-03
       O  1.32816e-03  8.37534e-05 -3.90457e-04
       H  4.26704e-03  2.42223e-03 -1.59374e-03
       H  6.99683e-03 -1.75184e-03  3.22202e-04
       O  5.65671e-04 -6.28013e-04  1.23302e-04
       H  1.45848e-03 -1.00965e-03 -2.44617e-03
       H -2.30837e-03  1.81777e-03 -3.33540e-03
       O  1.02498e-03 -2.12364e-03  1.80809e-03
       H -1.55320e-03 -5.42132e-04 -5.10758e-04
       H -1.53662e-03 -2.81248e-03 -2.68929e-03
       O -2.59703e-05  3.78694e-05  4.67020e-04
       H  4.06405e-03  6.31076e-05  2.12471e-03
       H  3.37762e-03  4.49472e-03 -1.83664e-03
       O  6.92615e-04  8.98614e-04 -8.30058e-05
       H  2.25998e-03 -1.77112e-04 -1.06072e-03
       H -6.22652e-03  6.93734e-03 -5.06244e-03
       O  1.78529e-05  6.94299e-04 -8.59236e-05
       H  3.03655e-04 -1.48133e-03 -1.97688e-03
       H -5.83922e-05  2.04126e-03  1.03684e-03
       O -2.91302e-05  2.17780e-03 -1.25890e-04
       H -3.45551e-03  1.50697e-03 -1.06071e-03
       H -8.89712e-03 -2.23516e-03  1.64773e-03
       O  9.16786e-04  1.16981e-04  4.02853e-04
       H -2.57496e-03 -2.93297e-03  9.88581e-04
       H  9.87149e-03 -2.22808e-03 -2.56272e-03
       O -5.07901e-04 -9.17314e-04  1.96554e-04
       H -7.18299e-04 -7.06968e-04 -2.53086e-03
       H  1.35942e-03  2.44202e-04  1.82544e-04
       O -1.35229e-03  9.79810e-04 -1.84321e-04
       H -4.47117e-03  6.40566e-04  2.22445e-03
       H -4.78495e-03  1.22312e-03 -9.48597e-04
       O  5.69005e-04  3.66382e-04  3.41581e-04
       H -4.74880e-03 -5.51826e-03  5.25367e-03
       H -3.33018e-03  4.51253e-04 -3.20507e-03
       O  7.01719e-04 -1.98782e-04 -9.07105e-04
       H -1.06641e-03 -5.77614e-03 -1.05401e-03
       H -3.85632e-04 -2.02827e-04  4.71093e-04
       O -7.50287e-04 -7.27481e-04 -3.32961e-04
       H -1.55862e-03  2.51625e-03  1.38194e-03
       H  2.70925e-03  1.13508e-03 -3.57416e-03
       O  4.81527e-04  1.27595e-03  3.05820e-04
       H  1.31787e-03  1.68296e-03 -5.15721e-04
       H -4.83319e-04  2.60555e-05 -2.84025e-03
       O  8.88931e-04 -4.83257e-04 -9.14409e-04
       H  3.36530e-03 -1.55745e-04 -7.97662e-03
       H  1.30788e-03 -5.91665e-03  6.11778e-03
       O  8.82508e-04  5.24585e-04 -2.36436e-03
       H  3.55218e-03  5.08611e-04  2.11595e-04
       H  2.10347e-03 -7.95733e-04  5.62383e-03
       O  4.22446e-04 -1.23932e-03  4.17990e-04
       H -7.50296e-03  4.78958e-03 -5.36505e-03
       H -2.88413e-03  3.38454e-03 -3.65176e-03
       O -1.29642e-04 -1.40304e-04  1.01866e-03
       H -1.45253e-03  2.82870e-03 -3.68545e-03
       H  3.21039e-03  4.13764e-03 -4.83387e-03
       O  1.99125e-04  1.37330e-03 -1.24019e-03
       H  4.21415e-03 -1.55160e-04  3.85371e-04
       H -4.12216e-03  2.03770e-03  2.73711e-03
       O -7.09494e-04 -8.20898e-04 -2.39775e-04
       H -1.15528e-03 -1.67193e-03 -3.24977e-03
       H -8.41337e-03 -6.91582e-05  1.12239e-03
       O -3.11505e-03 -9.10840e-04  1.04074e-04
       H -6.88889e-03  6.99830e-04  2.57667e-03
       H -4.01669e-03 -1.40344e-03 -4.98549e-03
       O  1.76242e-03 -3.29378e-04  3.22879e-04
       H -2.93769e-04 -5.39214e-03 -4.37183e-03
       H -4.39464e-04  8.07799e-04 -3.12322e-04
       O -1.41659e-03  9.67163e-04  1.05656e-03
       H -7.08003e-03  1.25072e-03  1.05537e-03
       H -2.14086e-03  1.15251e-03 -1.25754e-03
       O  2.77202e-04  6.06144e-04 -1.49954e-03
       H -8.24410e-04 -4.77484e-04  7.48460e-03
       H -1.63887e-03 -3.04298e-03  1.53975e-03
       O  4.02976e-04  7.80594e-04 -9.28001e-04
       H  5.71901e-03  2.46197e-03  6.47563e-03
       H  3.15906e-03 -1.31654e-03  6.30119e-03
       O -8.85194e-05  2.45211e-04  4.98217e-04
       H -5.45700e-03 -9.46515e-04 -2.73116e-03
       H -2.04087e-03 -4.84104e-03 -2.41140e-03
       O -4.92024e-04 -8.09236e-04  6.13817e-05
       H  1.51480e-03 -1.60534e-03  2.16870e-03
       H  8.01170e-04 -3.66064e-03 -3.36400e-04
       O  3.98907e-04  1.01597e-03  1.43330e-03
       H -6.30741e-03 -9.58733e-04 -3.13862e-03
       H -5.47792e-03  4.77094e-03  2.42766e-03
       O  1.51884e-03 -2.03625e-04 -5.29916e-04
       H -3.25540e-03  7.04693e-04  1.75827e-03
       H  3.76916e-03 -3.58635e-03  9.01757e-03
       O  6.09732e-04 -1.47287e-03 -1.43599e-03
       H -2.33398e-03 -3.98266e-03 -4.86275e-03
       H  1.67894e-03 -1.33311e-03  1.17856e-03
       O -7.69919e-04  6.99882e-04 -4.01076e-04
       H -2.71327e-03 -7.64315e-03  1.76398e-03
       H -1.75518e-03 -2.15582e-03 -1.76849e-04
       O -1.64646e-04  1.96232e-03 -6.56752e-04
       H -2.63845e-03  7.55636e-04  3.85155e-03
       H  1.67888e-03  1.21033e-03 -1.89067e-03
       O -6.43055e-05  6.44043e-04  2.49643e-04
       H  2.89381e-03  1.55788e-03  2.05977e-04
       H  2.10351e-03  4.52279e-03  4.21460e-04
       O -1.14412e-03  6.19825e-04 -3.75518e-04
       H  2.09724e-03  1.73194e-03  1.15763e-03
       H  1.68758e-03 -2.32802e-03 -5.95355e-04
       O  3.26980e-04 -1.09578e-03  1.54728e-03
       H -5.36879e-03  1.64521e-04  4.23994e-03
       H -1.36783e-03  2.22243e-04 -4.77727e-03
       O -3.51088e-04  2.94808e-04  5.49175e-04
       H  6.97695e-04  9.08454e-05 -1.24122e-03
       H  2.72166e-03 -4.13686e-03  2.57843e-03
       O -7.00609e-04 -3.88711e-06 -7.43413e-04
       H -3.79561e-03  4.64903e-03  4.27273e-04
       H -5.61807e-03 -3.74160e-03  3.32019e-03
       O  1.30755e-04 -7.63287e-04 -8.56910e-04
       H  4.72604e-03  1.13823e-03 -3.33216e-03
       H -1.69132e-03 -6.62165e-04  1.89158e-03
       O -4.78325e-04 -1.25731e-04  1.11198e-03
       H  9.25623e-04  2.76466e-03 -5.74993e-03
       H -5.23607e-03  3.98216e-04  5.50797e-03
       O  3.64438e-04  1.39708e-03  3.06914e-04
       H -4.11771e-03 -9.17683e-03 -2.78240e-03
       H -1.57402e-03 -9.68064e-04  3.14010e-03
       O -1.49597e-03 -2.40333e-04  1.46689e-03
       H  8.42090e-03 -5.06496e-03 -2.39193e-03
       H  9.68640e-04 -1.93985e-03  2.39672e-03
       O -2.21747e-04  8.89982e-04  1.17768e-03
       H -5.79671e-03  9.67415e-04  2.09482e-03
       H  6.41015e-03  7.04783e-03 -6.70267e-03
       O -7.31107e-04  6.26602e-04 -4.56309e-04
       H  2.97843e-03 -1.36823e-03  4.08944e-04
       H  5.28786e-03  4.87349e-04 -1.63119e-03
       O -4.03866e-04 -1.31867e-03 -1.43984e-03
       H -5.31775e-03  2.72786e-04 -1.36164e-03
       H -6.12422e-04  2.37697e-03  1.68227e-03
       O -1.10246e-03 -5.19410e-04 -1.64505e-03
       H  2.74888e-03  3.56572e-03 -2.02508e-03
       H -4.22273e-03  2.01974e-03  3.29346e-03
       O  9.29544e-04  1.66787e-03  1.11981e-03
       H -7.03517e-04 -2.91288e-03 -2.67327e-03
       H  9.44457e-03  3.02165e-03 -6.25756e-03
       O  5.66970e-04  1.86257e-03 -1.08903e-03
       H -3.96097e-03  9.64916e-04 -2.47597e-03
       H  4.10119e-03 -1.27005e-03 -1.22589e-03
192
# CELL(abcABC):   16.99620    29.43815    27.67315    90.00000    90.00000    90.00000  Step:          20  Bead:      27 velocities{atomic_unit}  cell{atomic_unit}
       O -1.14157e-03  6.99354e-04 -5.51424e-04
       H  8.98528e-03 -1.36155e-03 -3.15179e-05
       H -7.86909e-03 -2.17534e-03 -2.73733e-03
       O  1.14741e-04 -1.77078e-04  1.12740e-03
       H  4.53441e-03 -2.11785e-03  7.54447e-04
       H  1.19514e-03  2.50530e-04 -1.98538e-03
       O  3.61050e-04 -8.39309e-04 -9.81407e-04
       H  8.74209e-03  3.42486e-04 -3.52503e-03
       H  1.46354e-03 -4.21983e-04  1.13530e-03
       O -1.25287e-03 -1.11236e-03  7.97332e-04
       H -2.96807e-03  5.36836e-03 -6.10064e-04
       H -5.15063e-03  3.74898e-04 -6.76461e-03
       O  8.26628e-04  7.92196e-04 -2.46769e-03
       H  4.06787e-03  5.74197e-04  4.10519e-03
       H  4.99501e-03 -2.94500e-03 -3.99516e-03
       O -1.00435e-03 -3.25611e-04  5.22885e-05
       H -2.37778e-03 -2.45465e-03 -9.61954e-04
       H  1.73892e-03  1.41450e-03  7.18409e-04
       O -6.03809e-04 -2.82318e-05 -1.00821e-03
       H -1.54891e-03  7.84073e-03  5.74295e-03
       H -2.93041e-03  1.28379e-03 -2.13283e-03
       O -4.95820e-04  1.91609e-03  1.04879e-03
       H -5.43369e-03 -9.59248e-04  3.48580e-04
       H -4.43840e-03 -7.66884e-04  8.74353e-03
       O  2.28045e-03  1.11004e-04  8.29478e-04
       H -3.17481e-03 -7.65547e-04  2.58719e-03
       H -5.71417e-04  4.53707e-04  2.53041e-03
       O -9.92010e-04 -6.62120e-04 -1.12884e-03
       H  4.53528e-03 -7.47631e-04  5.13798e-03
       H -2.56854e-03 -2.46038e-03  3.56999e-04
       O -8.78185e-04 -9.04646e-04 -3.62126e-04
       H  5.88801e-04 -1.86533e-03  5.55916e-04
       H -8.00346e-04  4.52803e-03  7.82108e-04
       O -1.12849e-03  4.43373e-04  9.58919e-04
       H -4.71997e-03  2.68695e-03  1.81554e-03
       H  3.03850e-03  4.50505e-04 -3.23657e-03
       O  8.85822e-04  7.54102e-04 -1.28916e-03
       H -3.31168e-03  6.30075e-05 -5.01509e-03
       H  2.49324e-03 -3.24219e-04  1.91973e-03
       O -5.06651e-04  4.55094e-04 -1.41546e-04
       H  5.08283e-03 -1.08228e-02 -1.00377e-02
       H  4.45500e-04  4.64259e-03  1.67417e-03
       O  6.20694e-04  7.68816e-04  1.85209e-03
       H  4.05780e-03 -7.23887e-03  6.63236e-04
       H -6.23276e-04  2.54974e-03 -8.81529e-04
       O  1.32769e-03  5.94414e-04 -1.87639e-04
       H  1.28864e-03 -5.99321e-03 -5.64271e-03
       H -6.86165e-03 -6.20936e-03  5.53953e-03
       O -1.83174e-03 -1.23709e-03  7.14788e-05
       H  3.22992e-03  1.00396e-03 -2.66452e-03
       H  4.62551e-03 -3.24362e-03  4.05782e-03
       O -3.78357e-04 -3.15522e-04  6.16521e-04
       H -4.24257e-03  3.60171e-03 -5.66958e-03
       H  5.10094e-03  6.73635e-03  4.34473e-03
       O  1.36317e-03 -8.33484e-04 -1.01752e-03
       H -3.75354e-03 -1.13120e-03  1.94494e-04
       H  6.99503e-05  1.06694e-03  9.69519e-03
       O -1.98153e-03  5.25433e-04  5.07583e-04
       H  7.36094e-03  1.69600e-03  6.26428e-04
       H -1.79633e-03  3.62569e-03  1.00096e-03
       O  1.13143e-03 -5.05316e-04  1.11951e-03
       H -1.67876e-03  4.05423e-03 -2.71498e-03
       H -4.95801e-03 -6.82205e-03 -1.56285e-03
       O  1.06626e-04 -1.13427e-03  8.14076e-04
       H  2.84906e-03 -2.38458e-03 -7.05967e-05
       H  1.67472e-03 -2.11116e-03 -3.25726e-03
       O -1.59348e-03  2.40445e-05  7.30459e-04
       H -1.58151e-03  1.99554e-03  2.29206e-03
       H  5.29805e-03  5.87188e-03  2.19259e-03
       O -1.54599e-03  1.84858e-04  4.36154e-04
       H  6.69842e-03 -1.20848e-03 -5.75720e-04
       H  8.31736e-04  3.91958e-03  4.71963e-03
       O -1.12795e-03 -7.46810e-04  1.61474e-03
       H -6.19292e-03  1.91913e-03  8.91161e-05
       H -4.19160e-03 -9.48147e-05 -2.10987e-03
       O -8.85675e-04 -9.43724e-05 -6.47430e-04
       H  4.43536e-03 -2.15510e-03 -1.46519e-03
       H -1.19309e-03 -4.10282e-03 -1.81565e-04
       O  6.07699e-04  5.66538e-04  1.18647e-03
       H  2.53243e-03 -2.99768e-03  1.39263e-03
       H -1.57359e-03  5.11057e-03 -4.29494e-03
       O -1.01925e-04  1.83719e-04  2.60199e-04
       H -3.00942e-03 -2.83908e-04 -5.84391e-03
       H  1.47625e-03  2.01403e-03 -2.64111e-03
       O  2.04170e-04  1.03855e-05 -1.89444e-04
       H -2.14247e-03  5.20081e-04 -7.06039e-03
       H -1.06131e-03 -6.09862e-03 -1.80310e-03
       O -4.10715e-04 -2.19324e-04  1.17060e-03
       H -2.48121e-03 -5.06439e-03 -1.10300e-03
       H -5.52254e-04  4.18187e-03 -2.89933e-03
       O  3.84730e-05 -4.26250e-04 -7.05666e-04
       H  1.06780e-03 -5.03523e-03  4.69016e-03
       H -2.16823e-03  5.48126e-03  5.29950e-03
       O  1.00429e-03 -2.17785e-06 -4.58077e-04
       H -6.36431e-03 -2.82591e-04 -1.74928e-03
       H  9.55498e-05 -2.82938e-03  1.24093e-03
       O  3.19716e-04  9.89463e-04 -4.64409e-05
       H  9.61640e-04  1.18417e-02  4.18597e-03
       H  6.58669e-04 -5.28126e-03  1.65350e-03
       O  9.45148e-04  2.40523e-04 -2.01368e-04
       H -1.11118e-03  3.76903e-03  4.77480e-04
       H  5.91545e-03  6.27913e-03 -4.41907e-03
       O  1.06019e-03 -1.28040e-03  4.94450e-04
       H  5.24114e-03 -6.75080e-03 -1.77154e-03
       H  5.77751e-03  1.69160e-03  1.64736e-03
       O -3.86533e-04 -8.22581e-04  3.27497e-04
       H -7.56263e-03  2.38427e-03 -3.76746e-03
       H  2.05043e-03 -4.17555e-03 -3.76381e-03
       O  6.49964e-04  1.09290e-03  2.58700e-05
       H -3.31558e-04 -4.71053e-03  8.46592e-04
       H -2.56254e-03  3.51778e-03 -3.26671e-03
       O -7.30472e-04  2.09010e-04 -2.34860e-04
       H -4.72312e-03 -1.84397e-03  2.68480e-03
       H -1.34557e-03 -2.53086e-03 -3.24879e-03
       O -9.99883e-04  1.00400e-03 -1.22972e-03
       H  1.84036e-03  1.24537e-03  7.24835e-04
       H -1.50184e-03  1.78090e-03  6.37011e-04
       O -4.58473e-04 -1.17248e-03  5.32830e-04
       H -1.43850e-03 -3.45476e-03 -6.44102e-03
       H  3.26686e-03 -5.31069e-03 -7.71589e-04
       O  1.62904e-04  7.88720e-04 -4.52209e-04
       H -5.76364e-03 -4.53513e-03 -4.64991e-04
       H  9.39838e-04 -3.55754e-03 -3.07512e-03
       O  1.47556e-03  4.04745e-04 -1.21501e-03
       H  1.38377e-04 -3.96520e-03 -2.72520e-03
       H  3.31844e-03 -3.98525e-03  3.61224e-03
       O  5.46524e-05 -1.03748e-03 -6.42313e-04
       H  6.44804e-05  7.13356e-04  8.05098e-03
       H  1.90046e-03 -1.65374e-03  5.10736e-03
       O  2.64945e-04 -1.20575e-03  5.41245e-04
       H -2.45015e-03  4.19966e-03  2.14420e-03
       H -4.11218e-04 -3.70766e-03  4.82160e-03
       O -1.73318e-03  1.13191e-03 -6.76417e-04
       H -1.79346e-03  6.41921e-05 -9.58555e-04
       H  2.91961e-03 -3.62029e-03  3.80370e-03
       O -2.74271e-03  1.41386e-03 -1.16400e-03
       H  3.60091e-03  1.98691e-03  2.91665e-03
       H -4.86706e-04 -3.75816e-03 -1.00675e-03
       O  5.02660e-04 -7.19996e-04  5.47613e-04
       H  1.72005e-03  3.32640e-03  1.65114e-03
       H  2.18053e-04 -6.69056e-03  2.70094e-04
       O -5.20338e-04  1.26995e-03 -5.79414e-05
       H  3.14921e-03 -2.22275e-03 -1.23693e-03
       H  5.72204e-03  8.91409e-04  2.63249e-04
       O  2.48213e-04  4.07956e-04 -9.35986e-04
       H  4.90008e-03  2.52574e-03  7.99889e-03
       H -4.32053e-04  1.63036e-03  1.14873e-03
       O  8.65373e-04 -3.33835e-04  3.82197e-04
       H  5.06612e-05 -2.11121e-03 -4.59902e-03
       H -4.51313e-03 -6.87776e-03  1.41155e-03
       O  3.18970e-04  8.32441e-04 -3.39421e-04
       H -4.44600e-03 -3.36507e-03  2.03785e-03
       H  3.02572e-03  3.24567e-03 -6.53823e-03
       O  9.69224e-04  4.03968e-05  6.10122e-04
       H  3.34635e-03  5.25710e-03 -1.39534e-03
       H  1.29812e-04 -1.26913e-03  3.24003e-03
       O  5.66003e-04 -3.89430e-04 -5.93188e-04
       H  5.09095e-04 -1.47321e-03 -5.57639e-03
       H  7.72681e-04 -8.96679e-04 -2.48295e-03
       O -4.43435e-04 -2.97616e-04  6.54261e-04
       H  7.38518e-04 -1.63070e-03 -3.75594e-03
       H  8.27878e-03  3.00741e-03 -1.43236e-03
       O  1.88340e-04 -8.29632e-05  4.76541e-04
       H  8.71506e-04  7.03860e-03  6.09903e-03
       H  3.94816e-03  4.46041e-03  4.92171e-03
       O  7.30123e-04  2.19878e-04  3.75378e-04
       H -3.59064e-03 -3.25312e-03  2.36539e-03
       H  4.40487e-03  3.68988e-03  5.51389e-03
       O  8.37268e-06 -3.26745e-04  1.42711e-03
       H  3.31250e-03 -3.08041e-03 -1.15376e-04
       H  2.29667e-03  1.37875e-03  1.44418e-03
       O -3.93991e-04  6.69234e-04 -8.46080e-05
       H -7.13192e-03 -3.32293e-03  3.12937e-04
       H -3.29332e-03  1.99592e-03 -5.99634e-03
       O -3.19142e-05 -4.06606e-04 -1.56500e-04
       H -4.63327e-03  4.19920e-03  4.04601e-03
       H -2.29962e-03  6.58444e-03  3.64441e-03
       O -1.84000e-04  3.31009e-04 -5.11976e-04
       H  4.45915e-03  1.15063e-04  5.65892e-03
       H -7.52182e-03 -7.99844e-03  5.57920e-03
       O -2.70665e-04  1.80240e-03  9.60737e-04
       H  4.49761e-03  2.24460e-03 -1.60239e-03
       H -1.72029e-03 -5.04744e-05  4.25605e-03
       O  2.37981e-04  2.94177e-04 -3.94544e-04
       H  2.18425e-03 -6.51419e-03 -6.33065e-04
       H -4.66854e-04  5.30655e-03  1.06508e-03
       O -8.95907e-04  1.62565e-03 -9.15149e-06
       H  8.61930e-04 -2.61669e-03 -1.96544e-03
       H  7.29764e-03  4.36548e-03 -3.01508e-03
       O  7.13727e-04 -2.82479e-05 -1.76043e-03
       H -2.27755e-03 -5.79593e-03 -4.85315e-03
       H -9.11368e-04 -7.75037e-04 -5.96765e-03
192
# CELL(abcABC):   16.99620    29.43815    27.67315    90.00000    90.00000    90.00000  Step:          30  Bead:      27 velocities{atomic_unit}  cell{atomic_unit}
       O  5.25027e-04 -1.91890e-05  2.23314e-03
       H  2.32937e-03  1.09035e-04  1.76063e-03
       H  7.52839e-03  6.17253e-03 -4.95927e-03
       O -9.29756e-05 -2.31146e-04  5.10792e-04
       H  5.04787e-03  5.57197e-03  4.73365e-03
       H  4.64742e-03 -4.02489e-03 -1.35760e-03
       O -2.88565e-04  6.28993e-04  5.56156e-05
       H -1.02140e-03 -5.62421e-03 -5.35742e-03
       H -3.87811e-03  4.93627e-04  2.19160e-03
       O  2.82724e-04 -1.32255e-03  3.38699e-04
       H  7.01644e-03  1.16000e-03  3.22507e-03
       H  3.77043e-03 -2.43831e-03  8.00646e-03
       O  5.18602e-04  1.45466e-03  1.10025e-03
       H  4.15295e-03 -6.83069e-03  3.28801e-03
       H -2.05999e-03  5.07542e-03  3.88558e-03
       O -1.22630e-03 -6.09205e-04 -8.41810e-04
       H  1.60401e-03 -4.22011e-03 -2.52821e-03
       H -3.74579e-03  3.80750e-03 -4.04401e-03
       O  8.07204e-04 -2.39495e-05  1.87475e-03
       H  2.51300e-03  7.62861e-04  8.67097e-04
       H  1.53963e-03 -2.47555e-03  6.63654e-03
       O  3.25383e-04 -3.93548e-05  8.38577e-04
       H -1.72827e-03  5.69456e-04  1.58167e-03
       H -4.88923e-03 -3.86501e-03  5.16876e-04
       O -3.71372e-04 -1.57090e-05 -8.25553e-04
       H  3.03799e-04 -4.30946e-03  1.84896e-03
       H -1.92910e-03  4.61137e-03 -1.27534e-03
       O  1.45956e-03 -1.47465e-03  3.17624e-04
       H  3.78233e-03  3.11811e-03  7.61395e-03
       H -3.58607e-03 -9.43886e-04  4.76378e-03
       O -1.37287e-03  2.21781e-03  2.14874e-04
       H -7.40113e-03 -2.64397e-03 -5.15150e-04
       H -8.82272e-04  4.54757e-03  1.73037e-04
       O -1.21271e-03  5.49237e-04  3.06839e-04
       H  1.02085e-03 -1.31079e-04 -4.77067e-03