192
# CELL(abcABC):   16.99620    29.43815    27.67315    90.00000    90.00000    90.00000  Step:           0  Bead:      29 positions{atomic_unit}  cell{atomic_unit}
       O -8.21943e+00 -9.93714e+00 -1.31733e+01
       H  7.30975e+00 -1.09659e+01 -1.36333e+01
       H -6.70309e+00 -1.09427e+01 -1.35003e+01
       O -3.97045e+00 -2.57760e+00 -1.31733e+01
       H -5.43740e+00 -3.60640e+00 -1.36335e+01
       H -2.45410e+00 -3.58307e+00 -1.35002e+01
       O -3.95479e+00 -1.25494e+01 -7.82537e-01
       H -3.95303e+00 -1.43463e+01 -2.27998e-01
       H -4.14654e+00 -1.25640e+01 -2.59980e+00
       O -8.20381e+00 -5.18980e+00 -7.82573e-01
       H -8.20206e+00 -6.98662e+00 -2.28079e-01
       H -8.39554e+00 -5.20430e+00 -2.59985e+00
       O -4.52774e+00 -1.21415e+01 -6.25501e+00
       H -6.04401e+00 -1.11359e+01 -6.58198e+00
       H -3.06070e+00 -1.11128e+01 -6.71509e+00
       O  8.21948e+00 -4.78197e+00 -6.25503e+00
       H  6.70316e+00 -3.77646e+00 -6.58191e+00
       H -7.30970e+00 -3.75321e+00 -6.71514e+00
       O  8.20373e+00 -9.52922e+00 -7.70081e+00
       H  8.39566e+00 -9.51468e+00 -9.51806e+00
       H  8.20220e+00 -7.73240e+00 -7.14624e+00
       O -4.54345e+00 -2.16975e+00 -7.70084e+00
       H -4.35162e+00 -2.15526e+00 -9.51812e+00
       H -4.54503e+00 -3.72917e-01 -7.14634e+00
       O -8.21943e+00 -9.93697e+00  6.63195e-01
       H  7.30977e+00 -1.09657e+01  2.03202e-01
       H -6.70308e+00 -1.09425e+01  3.36227e-01
       O -3.97044e+00 -2.57760e+00  6.63173e-01
       H -5.43747e+00 -3.60635e+00  2.03069e-01
       H -2.45410e+00 -3.58312e+00  3.36346e-01
       O -3.95472e+00 -1.25494e+01  1.30540e+01
       H -3.95309e+00 -1.43462e+01  1.36086e+01
       H -4.14653e+00 -1.25640e+01  1.12368e+01
       O -8.20380e+00 -5.18990e+00  1.30541e+01
       H -8.20202e+00 -6.98672e+00  1.36085e+01
       H -8.39553e+00 -5.20434e+00  1.12368e+01
       O -4.52771e+00 -1.21415e+01  7.58159e+00
       H -6.04402e+00 -1.11360e+01  7.25460e+00
       H -3.06070e+00 -1.11128e+01  7.12152e+00
       O  8.21944e+00 -4.78191e+00  7.58149e+00
       H  6.70312e+00 -3.77633e+00  7.25453e+00
       H -7.30974e+00 -3.75322e+00  7.12139e+00
       O  8.20378e+00 -9.52926e+00  6.13582e+00
       H  8.39564e+00 -9.51474e+00  4.31856e+00
       H  8.20221e+00 -7.73246e+00  6.69037e+00
       O -4.54344e+00 -2.16971e+00  6.13568e+00
       H -4.35161e+00 -2.15522e+00  4.31840e+00
       H -4.54506e+00 -3.72896e-01  6.69017e+00
       O -8.21947e+00  4.78210e+00 -1.31734e+01
       H  7.30974e+00  3.75335e+00 -1.36334e+01
       H -6.70314e+00  3.77651e+00 -1.35002e+01
       O -3.97046e+00  1.21415e+01 -1.31733e+01
       H -5.43745e+00  1.11127e+01 -1.36334e+01
       H -2.45410e+00  1.11360e+01 -1.35002e+01
       O -3.95479e+00  2.16971e+00 -7.82462e-01
       H -3.95303e+00  3.72884e-01 -2.27933e-01
       H -4.14646e+00  2.15509e+00 -2.59975e+00
       O -8.20376e+00  9.52923e+00 -7.82499e-01
       H -8.20200e+00  7.73238e+00 -2.27998e-01
       H -8.39546e+00  9.51472e+00 -2.59977e+00
       O -4.52774e+00  2.57749e+00 -6.25512e+00
       H -6.04400e+00  3.58312e+00 -6.58197e+00
       H -3.06066e+00  3.60618e+00 -6.71512e+00
       O  8.21949e+00  9.93715e+00 -6.25509e+00
       H  6.70318e+00  1.09426e+01 -6.58202e+00
       H -7.30970e+00  1.09659e+01 -6.71526e+00
       O  8.20366e+00  5.18988e+00 -7.70077e+00
       H  8.39552e+00  5.20437e+00 -9.51803e+00
       H  8.20217e+00  6.98669e+00 -7.14625e+00
       O -4.54337e+00  1.25494e+01 -7.70088e+00
       H -4.35159e+00  1.25639e+01 -9.51817e+00
       H -4.54500e+00  1.43462e+01 -7.14634e+00
       O -8.21952e+00  4.78190e+00  6.63226e-01
       H  7.30971e+00  3.75313e+00  2.03107e-01
       H -6.70317e+00  3.77635e+00  3.36440e-01
       O -3.97040e+00  1.21415e+01  6.63326e-01
       H -5.43738e+00  1.11127e+01  2.03185e-01
       H -2.45407e+00  1.11360e+01  3.36426e-01
       O -3.95476e+00  2.16964e+00  1.30541e+01
       H -3.95303e+00  3.72832e-01  1.36087e+01
       H -4.14651e+00  2.15510e+00  1.12369e+01
       O -8.20373e+00  9.52937e+00  1.30540e+01
       H -8.20206e+00  7.73252e+00  1.36085e+01
       H -8.39548e+00  9.51483e+00  1.12368e+01
       O -4.52770e+00  2.57756e+00  7.58140e+00
       H -6.04399e+00  3.58315e+00  7.25450e+00
       H -3.06066e+00  3.60630e+00  7.12138e+00
       O  8.21951e+00  9.93714e+00  7.58157e+00
       H  6.70319e+00  1.09427e+01  7.25463e+00
       H -7.30968e+00  1.09658e+01  7.12140e+00
       O  8.20369e+00  5.18993e+00  6.13578e+00
       H  8.39547e+00  5.20441e+00  4.31850e+00
       H  8.20212e+00  6.98674e+00  6.69030e+00
       O -4.54348e+00  1.25494e+01  6.13570e+00
       H -4.35158e+00  1.25639e+01  4.31845e+00
       H -4.54503e+00  1.43462e+01  6.69025e+00
       O  2.78573e-01 -9.93717e+00 -1.31734e+01
       H -1.18842e+00 -1.09659e+01 -1.36336e+01
       H  1.79493e+00 -1.09427e+01 -1.35002e+01
       O  4.52772e+00 -2.57751e+00 -1.31733e+01
       H  3.06068e+00 -3.60627e+00 -1.36334e+01
       H  6.04403e+00 -3.58305e+00 -1.35003e+01
       O  4.54334e+00 -1.25494e+01 -7.82465e-01
       H  4.54513e+00 -1.43463e+01 -2.27989e-01
       H  4.35168e+00 -1.25640e+01 -2.59974e+00
       O  2.94294e-01 -5.18980e+00 -7.82487e-01
       H  2.96032e-01 -6.98663e+00 -2.28053e-01
       H  1.02602e-01 -5.20427e+00 -2.59977e+00
       O  3.97042e+00 -1.21415e+01 -6.25517e+00
       H  2.45414e+00 -1.11359e+01 -6.58198e+00
       H  5.43747e+00 -1.11128e+01 -6.71526e+00
       O -2.78672e-01 -4.78194e+00 -6.25508e+00
       H -1.79498e+00 -3.77636e+00 -6.58199e+00
       H  1.18837e+00 -3.75320e+00 -6.71514e+00
       O -2.94511e-01 -9.52920e+00 -7.70081e+00
       H -1.02600e-01 -9.51466e+00 -9.51806e+00
       H -2.96005e-01 -7.73240e+00 -7.14625e+00
       O  3.95462e+00 -2.16972e+00 -7.70080e+00
       H  4.14654e+00 -2.15521e+00 -9.51804e+00
       H  3.95318e+00 -3.72879e-01 -7.14628e+00
       O  2.78541e-01 -9.93701e+00  6.63104e-01
       H -1.18842e+00 -1.09658e+01  2.03011e-01
       H  1.79493e+00 -1.09425e+01  3.36333e-01
       O  4.52773e+00 -2.57757e+00  6.63187e-01
       H  3.06068e+00 -3.60633e+00  2.03125e-01
       H  6.04402e+00 -3.58308e+00  3.36357e-01
       O  4.54332e+00 -1.25494e+01  1.30541e+01
       H  4.54518e+00 -1.43462e+01  1.36086e+01
       H  4.35169e+00 -1.25640e+01  1.12368e+01
       O  2.94281e-01 -5.18991e+00  1.30541e+01
       H  2.95995e-01 -6.98675e+00  1.36085e+01
       H  1.02570e-01 -5.20435e+00  1.12368e+01
       O  3.97044e+00 -1.21415e+01  7.58145e+00
       H  2.45413e+00 -1.11360e+01  7.25466e+00
       H  5.43745e+00 -1.11128e+01  7.12135e+00
       O -2.78601e-01 -4.78191e+00  7.58148e+00
       H -1.79495e+00 -3.77634e+00  7.25458e+00
       H  1.18839e+00 -3.75323e+00  7.12138e+00
       O -2.94501e-01 -9.52922e+00  6.13582e+00
       H -1.02637e-01 -9.51466e+00  4.31854e+00
       H -2.96013e-01 -7.73241e+00  6.69035e+00
       O  3.95462e+00 -2.16967e+00  6.13570e+00
       H  4.14656e+00 -2.15516e+00  4.31844e+00
       H  3.95315e+00 -3.72836e-01  6.69024e+00
       O  2.78636e-01  4.78206e+00 -1.31735e+01
       H -1.18832e+00  3.75329e+00 -1.36335e+01
       H  1.79499e+00  3.77651e+00 -1.35003e+01
       O  4.52773e+00  1.21415e+01 -1.31733e+01
       H  3.06066e+00  1.11127e+01 -1.36334e+01
       H  6.04403e+00  1.11360e+01 -1.35003e+01
       O  4.54332e+00  2.16970e+00 -7.82499e-01
       H  4.54510e+00  3.72872e-01 -2.27973e-01
       H  4.35161e+00  2.15513e+00 -2.59979e+00
       O  2.94188e-01  9.52923e+00 -7.82517e-01
       H  2.95976e-01  7.73239e+00 -2.28033e-01
       H  1.02486e-01  9.51470e+00 -2.59980e+00
       O  3.97041e+00  2.57752e+00 -6.25508e+00
       H  2.45414e+00  3.58307e+00 -6.58188e+00
       H  5.43747e+00  3.60626e+00 -6.71516e+00
       O -2.78677e-01  9.93714e+00 -6.25506e+00
       H -1.79497e+00  1.09427e+01 -6.58203e+00
       H  1.18838e+00  1.09659e+01 -6.71517e+00
       O -2.94451e-01  5.18990e+00 -7.70074e+00
       H -1.02475e-01  5.20442e+00 -9.51799e+00
       H -2.95971e-01  6.98671e+00 -7.14623e+00
       O  3.95453e+00  1.25494e+01 -7.70088e+00
       H  4.14650e+00  1.25638e+01 -9.51813e+00
       H  3.95314e+00  1.43462e+01 -7.14638e+00
       O  2.78666e-01  4.78190e+00  6.63181e-01
       H -1.18838e+00  3.75314e+00  2.03219e-01
       H  1.79499e+00  3.77637e+00  3.36305e-01
       O  4.52768e+00  1.21415e+01  6.63233e-01
       H  3.06065e+00  1.11127e+01  2.03130e-01
       H  6.04402e+00  1.11359e+01  3.36318e-01
       O  4.54337e+00  2.16963e+00  1.30541e+01
       H  4.54515e+00  3.72778e-01  1.36085e+01
       H  4.35165e+00  2.15511e+00  1.12368e+01
       O  2.94139e-01  9.52935e+00  1.30540e+01
       H  2.96028e-01  7.73252e+00  1.36085e+01
       H  1.02508e-01  9.51480e+00  1.12368e+01
       O  3.97044e+00  2.57752e+00  7.58146e+00
       H  2.45409e+00  3.58312e+00  7.25468e+00
       H  5.43745e+00  3.60627e+00  7.12136e+00
       O -2.78642e-01  9.93713e+00  7.58156e+00
       H -1.79498e+00  1.09426e+01  7.25459e+00
       H  1.18834e+00  1.09658e+01  7.12145e+00
       O -2.94462e-01  5.18993e+00  6.13575e+00
       H -1.02485e-01  5.20444e+00  4.31854e+00
       H -2.95928e-01  6.98677e+00  6.69031e+00
       O  3.95461e+00  1.25493e+01  6.13580e+00
       H  4.14651e+00  1.25638e+01  4.31854e+00
       H  3.95313e+00  1.43462e+01  6.69028e+00
192
# CELL(abcABC):   16.99620    29.43815    27.67315    90.00000    90.00000    90.00000  Step:          10  Bead:      29 positions{atomic_unit}  cell{atomic_unit}
       O -8.19305e+00 -9.96034e+00 -1.31381e+01
       H  7.38081e+00 -1.09209e+01 -1.35481e+01
       H -6.70082e+00 -1.09073e+01 -1.35452e+01
       O -3.93466e+00 -2.60020e+00 -1.31478e+01
       H -5.46531e+00 -3.73521e+00 -1.36437e+01
       H -2.52623e+00 -3.65800e+00 -1.33125e+01
       O -3.95710e+00 -1.25721e+01 -7.55759e-01
       H -3.95161e+00 -1.42306e+01 -3.05003e-01
       H -4.04639e+00 -1.23286e+01 -2.58290e+00
       O -8.27348e+00 -5.19341e+00 -8.00791e-01
       H -8.16343e+00 -6.95561e+00 -2.24605e-01
       H -8.40498e+00 -5.30536e+00 -2.44336e+00
       O -4.55953e+00 -1.21404e+01 -6.24855e+00
       H -5.98041e+00 -1.11810e+01 -6.68820e+00
       H -3.09153e+00 -1.11583e+01 -6.84497e+00
       O  8.23756e+00 -4.76749e+00 -6.22178e+00
       H  6.71969e+00 -3.69082e+00 -6.46380e+00
       H -7.27584e+00 -3.76538e+00 -6.80451e+00
       O  8.22036e+00 -9.51599e+00 -7.70089e+00
       H  8.37440e+00 -9.37995e+00 -9.51803e+00
       H  8.28962e+00 -7.70511e+00 -7.22248e+00
       O -4.54063e+00 -2.14964e+00 -7.71652e+00
       H -4.27536e+00 -2.27469e+00 -9.33299e+00
       H -4.65380e+00 -3.99827e-01 -6.98050e+00
       O -8.22910e+00 -9.91500e+00  6.65675e-01
       H  7.28166e+00 -1.10704e+01  1.72469e-01
       H -6.59455e+00 -1.11135e+01  5.18367e-01
       O -3.96390e+00 -2.61208e+00  6.93525e-01
       H -5.38396e+00 -3.59782e+00  5.88195e-02
       H -2.59771e+00 -3.66218e+00  3.95762e-01
       O -3.97829e+00 -1.25247e+01  1.30692e+01
       H -3.96699e+00 -1.43548e+01  1.36201e+01
       H -4.20108e+00 -1.26147e+01  1.11902e+01
       O -8.23178e+00 -5.18658e+00  1.30283e+01
       H -8.05555e+00 -7.09816e+00  1.36636e+01
       H -8.55341e+00 -5.25264e+00  1.13577e+01
       O -4.54255e+00 -1.21550e+01  7.54197e+00
       H -5.94778e+00 -1.11515e+01  7.20159e+00
       H -3.14852e+00 -1.12317e+01  7.18615e+00
       O  8.26507e+00 -4.77892e+00  7.60271e+00
       H  6.63786e+00 -3.77423e+00  7.46225e+00
       H -7.24960e+00 -3.86020e+00  6.94771e+00
       O  8.21720e+00 -9.49938e+00  6.16147e+00
       H  8.30868e+00 -9.32465e+00  4.38028e+00
       H  8.03339e+00 -7.67652e+00  6.80458e+00
       O -4.53890e+00 -2.19171e+00  6.16215e+00
       H -4.52014e+00 -2.24990e+00  4.31104e+00
       H -4.57377e+00 -3.67171e-01  6.71498e+00
       O -8.25190e+00  4.79419e+00 -1.31771e+01
       H  7.25756e+00  3.69719e+00 -1.33719e+01
       H -6.66952e+00  3.86529e+00 -1.34850e+01
       O -3.95164e+00  1.21352e+01 -1.31887e+01
       H -5.50322e+00  1.10638e+01 -1.35852e+01
       H -2.55041e+00  1.10074e+01 -1.35854e+01
       O -3.91669e+00  2.19189e+00 -7.83464e-01
       H -4.06405e+00  2.23780e-01 -2.67744e-01
       H -4.18867e+00  2.26630e+00 -2.72805e+00
       O -8.23825e+00  9.52429e+00 -8.13761e-01
       H -8.00560e+00  7.90432e+00 -2.57320e-01
       H -8.31060e+00  9.64670e+00 -2.72691e+00
       O -4.56650e+00  2.58131e+00 -6.26540e+00
       H -6.03046e+00  3.48661e+00 -6.57767e+00
       H -3.10656e+00  3.54214e+00 -6.85343e+00
       O  8.16547e+00  9.92839e+00 -6.25829e+00
       H  6.63900e+00  1.10876e+01 -6.65677e+00
       H -7.43132e+00  1.09840e+01 -6.64476e+00
       O  8.23846e+00  5.24461e+00 -7.68340e+00
       H  8.39190e+00  5.19021e+00 -9.50936e+00
       H  8.25263e+00  6.96822e+00 -7.21115e+00
       O -4.58372e+00  1.25483e+01 -7.68495e+00
       H -4.50062e+00  1.25812e+01 -9.41724e+00
       H -4.78438e+00  1.43866e+01 -7.20127e+00
       O -8.25314e+00  4.79451e+00  6.48717e-01
       H  7.34880e+00  3.81608e+00  2.61366e-01
       H -6.91633e+00  3.83971e+00  2.85167e-01
       O -3.99483e+00  1.21373e+01  6.46041e-01
       H -5.38649e+00  1.11125e+01  2.97230e-01
       H -2.49100e+00  1.11667e+01  4.22595e-01
       O -3.97080e+00  2.17578e+00  1.30067e+01
       H -3.78544e+00  1.87571e-01  1.37337e+01
       H -4.29978e+00  2.13973e+00  1.13009e+01
       O -8.19593e+00  9.51066e+00  1.30616e+01
       H -8.24098e+00  7.77374e+00  1.35617e+01
       H -8.53494e+00  9.38199e+00  1.11922e+01
       O -4.51493e+00  2.59013e+00  7.59343e+00
       H -6.05250e+00  3.45098e+00  7.25301e+00
       H -3.08784e+00  3.52197e+00  7.10563e+00
       O  8.20716e+00  9.95704e+00  7.55551e+00
       H  6.68940e+00  1.10433e+01  7.17490e+00
       H -7.26591e+00  1.10150e+01  7.10646e+00
       O  8.16963e+00  5.17593e+00  6.13546e+00
       H  8.56993e+00  5.16645e+00  4.13010e+00
       H  8.00971e+00  7.06756e+00  6.73556e+00
       O -4.53361e+00  1.25230e+01  6.14718e+00
       H -4.49963e+00  1.26241e+01  4.33301e+00
       H -4.55457e+00  1.42794e+01  6.71507e+00
       O  2.66233e-01 -9.94125e+00 -1.32158e+01
       H -1.08160e+00 -1.09720e+01 -1.37511e+01
       H  1.82213e+00 -1.10855e+01 -1.33428e+01
       O  4.53847e+00 -2.58469e+00 -1.31528e+01
       H  2.99881e+00 -3.52901e+00 -1.35672e+01
       H  6.08616e+00 -3.48968e+00 -1.35133e+01
       O  4.54954e+00 -1.25749e+01 -7.97679e-01
       H  4.40295e+00 -1.44221e+01 -2.41476e-01
       H  4.50140e+00 -1.24583e+01 -2.47742e+00
       O  3.07729e-01 -5.20870e+00 -8.00208e-01
       H  2.07703e-01 -6.99629e+00 -1.64378e-01
       H  3.72636e-02 -5.05543e+00 -2.55633e+00
       O  3.97737e+00 -1.21365e+01 -6.23015e+00
       H  2.45570e+00 -1.12642e+01 -6.57833e+00
       H  5.47627e+00 -1.12154e+01 -6.72929e+00
       O -3.04781e-01 -4.79785e+00 -6.25622e+00
       H -1.71725e+00 -3.77145e+00 -6.76400e+00
       H  1.22534e+00 -3.80723e+00 -6.75038e+00
       O -2.84934e-01 -9.52759e+00 -7.71859e+00
       H  4.72960e-03 -9.52487e+00 -9.77998e+00
       H -2.98198e-01 -7.78599e+00 -7.21690e+00
       O  3.94878e+00 -2.16498e+00 -7.68725e+00
       H  4.10707e+00 -2.13795e+00 -9.51633e+00
       H  4.06077e+00 -4.55702e-01 -7.04390e+00
       O  2.98136e-01 -9.93008e+00  6.51734e-01
       H -1.26591e+00 -1.09330e+01  2.24038e-01
       H  1.78049e+00 -1.09867e+01  1.80103e-01
       O  4.51387e+00 -2.55520e+00  6.50886e-01
       H  3.01803e+00 -3.78985e+00  2.41391e-01
       H  6.03505e+00 -3.67620e+00  4.87696e-01
       O  4.57100e+00 -1.25562e+01  1.31000e+01
       H  4.56361e+00 -1.43784e+01  1.35098e+01
       H  4.27601e+00 -1.25538e+01  1.12034e+01
       O  2.96961e-01 -5.21228e+00  1.30299e+01
       H  3.87506e-01 -6.98077e+00  1.36987e+01
       H  2.23639e-01 -5.17437e+00  1.13251e+01
       O  3.97267e+00 -1.21557e+01  7.55769e+00
       H  2.56738e+00 -1.11429e+01  7.05019e+00
       H  5.42220e+00 -1.12253e+01  7.18642e+00
       O -2.80568e-01 -4.78001e+00  7.56328e+00
       H -1.86926e+00 -3.88100e+00  7.32167e+00
       H  1.21743e+00 -3.72083e+00  7.22928e+00
       O -3.37005e-01 -9.52766e+00  6.12989e+00
       H -4.08113e-01 -9.67330e+00  4.30671e+00
       H -2.18875e-01 -7.78545e+00  6.60401e+00
       O  3.95335e+00 -2.19961e+00  6.11985e+00
       H  4.23609e+00 -2.18048e+00  4.25276e+00
       H  4.02109e+00 -3.60203e-01  6.86565e+00
       O  2.38990e-01  4.81306e+00 -1.31855e+01
       H -1.12924e+00  3.91681e+00 -1.35006e+01
       H  1.67561e+00  3.85872e+00 -1.34057e+01
       O  4.51745e+00  1.21063e+01 -1.31608e+01
       H  3.07430e+00  1.10902e+01 -1.38255e+01
       H  6.00970e+00  1.13885e+01 -1.34181e+01
       O  4.51906e+00  2.15266e+00 -8.13358e-01
       H  4.75544e+00  4.91761e-01 -1.50821e-01
       H  4.17198e+00  2.05304e+00 -2.55168e+00
       O  3.01586e-01  9.50598e+00 -8.05921e-01
       H  3.64801e-01  7.78464e+00 -2.48923e-01
       H  4.15507e-02  9.45687e+00 -2.68974e+00
       O  4.00694e+00  2.58687e+00 -6.25804e+00
       H  2.53382e+00  3.52206e+00 -6.51017e+00
       H  5.40161e+00  3.74618e+00 -6.49662e+00
       O -2.82440e-01  9.93187e+00 -6.22305e+00
       H -1.74827e+00  1.09102e+01 -6.43586e+00
       H  1.34697e+00  1.10596e+01 -6.76771e+00
       O -2.91206e-01  5.19075e+00 -7.74003e+00
       H -1.26647e-01  5.35560e+00 -9.55900e+00
       H -2.82662e-01  7.12305e+00 -7.19052e+00
       O  3.99248e+00  1.25527e+01 -7.67431e+00
       H  4.21396e+00  1.26326e+01 -9.48165e+00
       H  3.85625e+00  1.43433e+01 -7.24386e+00
       O  2.40610e-01  4.74389e+00  7.06186e-01
       H -9.98961e-01  3.57071e+00  1.29291e-01
       H  1.81713e+00  3.89922e+00  3.00500e-01
       O  4.53084e+00  1.21134e+01  6.81110e-01
       H  3.04833e+00  1.11099e+01  2.69632e-01
       H  6.10918e+00  1.11225e+01  5.07942e-01
       O  4.51950e+00  2.24032e+00  1.30739e+01
       H  4.46504e+00  4.77637e-01  1.37349e+01
       H  4.20679e+00  2.35796e+00  1.11815e+01
       O  2.68066e-01  9.53884e+00  1.30286e+01
       H  3.43438e-01  7.59152e+00  1.35814e+01
       H  9.11702e-02  9.42049e+00  1.12499e+01
       O  3.97716e+00  2.56974e+00  7.56984e+00
       H  2.41255e+00  3.67025e+00  7.23097e+00
       H  5.48019e+00  3.63115e+00  7.17672e+00
       O -2.45204e-01  9.94613e+00  7.59051e+00
       H -1.69582e+00  1.10541e+01  7.29758e+00
       H  1.05863e+00  1.10762e+01  7.18529e+00
       O -2.85954e-01  5.20217e+00  6.14080e+00
       H -3.08474e-02  5.26595e+00  4.31894e+00
       H -9.75082e-02  7.12501e+00  6.63785e+00
       O  3.98839e+00  1.25996e+01  6.15386e+00
       H  4.30549e+00  1.26717e+01  4.41903e+00
       H  4.00941e+00  1.43932e+01  6.78073e+00
192
# CELL(abcABC):   16.99620    29.43815    27.67315    90.00000    90.00000    90.00000  Step:          20  Bead:      29 positions{atomic_unit}  cell{atomic_unit}
       O -8.17463e+00 -9.98500e+00 -1.31682e+01
       H  7.53724e+00 -1.09358e+01 -1.35009e+01
       H -6.57403e+00 -1.09817e+01 -1.35449e+01
       O -3.92916e+00 -2.59729e+00 -1.31531e+01
       H -5.56218e+00 -3.72912e+00 -1.35261e+01
       H -2.38620e+00 -3.81636e+00 -1.33340e+01
       O -3.93045e+00 -1.25769e+01 -8.33412e-01
       H -3.89633e+00 -1.43140e+01 -3.78694e-01
       H -4.08668e+00 -1.23449e+01 -2.53657e+00
       O -8.26958e+00 -5.20680e+00 -7.98751e-01
       H -8.08857e+00 -6.96141e+00 -3.73492e-01
       H -8.41396e+00 -5.28319e+00 -2.49508e+00
       O -4.53888e+00 -1.21310e+01 -6.28054e+00
       H -6.11076e+00 -1.10708e+01 -6.66459e+00
       H -3.13057e+00 -1.10964e+01 -6.80968e+00
       O  8.21591e+00 -4.77773e+00 -6.22043e+00
       H  6.69209e+00 -3.51953e+00 -6.47856e+00
       H -7.22530e+00 -3.66691e+00 -6.81600e+00
       O  8.23774e+00 -9.51552e+00 -7.72948e+00
       H  8.44034e+00 -9.37703e+00 -9.47331e+00
       H  8.27715e+00 -7.63176e+00 -7.03775e+00
       O -4.55906e+00 -2.11678e+00 -7.74510e+00
       H -4.37600e+00 -2.11741e+00 -9.38643e+00
       H -4.59066e+00 -4.10324e-01 -7.06985e+00
       O -8.22220e+00 -9.95373e+00  6.64447e-01
       H  7.21055e+00 -1.09699e+01  1.84530e-01
       H -6.63339e+00 -1.11489e+01  4.29830e-01
       O -3.99952e+00 -2.62743e+00  7.14118e-01
       H -5.38198e+00 -3.54515e+00  1.45246e-01
       H -2.64688e+00 -3.90806e+00  3.39505e-01
       O -3.97632e+00 -1.24830e+01  1.30413e+01
       H -3.91321e+00 -1.41372e+01  1.35285e+01
       H -4.34544e+00 -1.25281e+01  1.12013e+01
       O -8.25217e+00 -5.18603e+00  1.30084e+01
       H -8.04607e+00 -7.17990e+00  1.37162e+01
       H -8.54803e+00 -5.26605e+00  1.14616e+01
       O -4.56690e+00 -1.21473e+01  7.51451e+00
       H -5.97051e+00 -1.11598e+01  7.09361e+00
       H -3.14707e+00 -1.12203e+01  7.13513e+00
       O  8.26507e+00 -4.77895e+00  7.58008e+00
       H  6.56512e+00 -3.52383e+00  7.44195e+00
       H -7.25955e+00 -3.86028e+00  6.81958e+00
       O  8.26426e+00 -9.48582e+00  6.17701e+00
       H  8.36778e+00 -9.29264e+00  4.42562e+00
       H  8.01187e+00 -7.56717e+00  6.76203e+00
       O -4.51224e+00 -2.19849e+00  6.12245e+00
       H -4.41986e+00 -2.32045e+00  4.44206e+00
       H -4.66759e+00 -4.65071e-01  6.84981e+00
       O -8.23356e+00  4.79986e+00 -1.31742e+01
       H  7.17382e+00  3.58262e+00 -1.34452e+01
       H -6.76268e+00  3.71416e+00 -1.34877e+01
       O -3.97254e+00  1.21462e+01 -1.31634e+01
       H -5.28766e+00  1.09799e+01 -1.35832e+01
       H -2.46580e+00  1.09660e+01 -1.35012e+01
       O -3.87605e+00  2.17795e+00 -7.99544e-01
       H -4.11751e+00  7.81596e-02 -3.15877e-01
       H -4.12123e+00  2.16290e+00 -2.68216e+00
       O -8.25703e+00  9.49889e+00 -8.70948e-01
       H -7.86713e+00  7.95576e+00 -2.29136e-01
       H -8.23197e+00  9.60874e+00 -2.81540e+00
       O -4.55638e+00  2.61651e+00 -6.26482e+00
       H -5.99403e+00  3.58331e+00 -6.54127e+00
       H -3.10803e+00  3.37382e+00 -6.98468e+00
       O  8.14986e+00  9.95809e+00 -6.26200e+00
       H  6.52448e+00  1.10963e+01 -6.71004e+00
       H -7.38442e+00  1.07457e+01 -6.60113e+00
       O  8.24090e+00  5.23902e+00 -7.67198e+00
       H  8.49475e+00  5.08222e+00 -9.49889e+00
       H  8.24341e+00  6.89767e+00 -7.29990e+00
       O -4.61028e+00  1.25968e+01 -7.64433e+00
       H -4.60085e+00  1.27037e+01 -9.57011e+00
       H -4.71423e+00  1.44262e+01 -7.29696e+00
       O -8.27029e+00  4.77868e+00  6.26372e-01
       H  7.31461e+00  3.67157e+00  3.94098e-01
       H -6.89709e+00  3.87189e+00  1.96066e-01
       O -3.98783e+00  1.21562e+01  6.44695e-01
       H -5.29946e+00  1.11922e+01  2.65617e-01
       H -2.48755e+00  1.12333e+01  4.72161e-01
       O -3.98307e+00  2.15627e+00  1.29904e+01
       H -3.51339e+00  1.22333e-01  1.37713e+01
       H -4.56162e+00  2.13431e+00  1.13841e+01
       O -8.21006e+00  9.51404e+00  1.30311e+01
       H -8.31184e+00  7.77368e+00  1.35306e+01
       H -8.47449e+00  9.29988e+00  1.13036e+01
       O -4.47773e+00  2.62617e+00  7.56013e+00
       H -6.17102e+00  3.37135e+00  7.30533e+00
       H -3.09340e+00  3.62333e+00  7.16616e+00
       O  8.23139e+00  9.99118e+00  7.53889e+00
       H  6.76300e+00  1.10947e+01  7.28130e+00
       H -7.31504e+00  1.10258e+01  7.05584e+00
       O  8.16175e+00  5.18042e+00  6.13694e+00
       H  8.47479e+00  5.24427e+00  4.20580e+00
       H  8.07188e+00  7.07571e+00  6.56314e+00
       O -4.53188e+00  1.25115e+01  6.11606e+00
       H -4.46844e+00  1.26011e+01  4.34906e+00
       H -4.57763e+00  1.43153e+01  6.63540e+00
       O  2.44284e-01 -9.92507e+00 -1.32700e+01
       H -1.09166e+00 -1.10193e+01 -1.37459e+01
       H  1.82300e+00 -1.11596e+01 -1.34325e+01
       O  4.52922e+00 -2.59574e+00 -1.30927e+01
       H  2.96297e+00 -3.45078e+00 -1.34969e+01
       H  6.05052e+00 -3.42271e+00 -1.35818e+01
       O  4.54788e+00 -1.26113e+01 -7.97697e-01
       H  4.28336e+00 -1.44787e+01 -7.07269e-02
       H  4.65656e+00 -1.23697e+01 -2.57244e+00
       O  2.83486e-01 -5.20619e+00 -7.69185e-01
       H  2.62122e-01 -6.95232e+00 -1.10760e-01
       H -2.45168e-02 -5.05139e+00 -2.47250e+00
       O  3.99355e+00 -1.21399e+01 -6.25569e+00
       H  2.36636e+00 -1.12758e+01 -6.64695e+00
       H  5.52455e+00 -1.11335e+01 -6.72668e+00
       O -3.04242e-01 -4.83380e+00 -6.23192e+00
       H -1.86351e+00 -3.84236e+00 -6.70846e+00
       H  1.36340e+00 -3.89241e+00 -6.63035e+00
       O -2.93237e-01 -9.53811e+00 -7.73015e+00
       H  1.29620e-01 -9.51779e+00 -9.63573e+00
       H -3.79591e-01 -7.89781e+00 -7.22006e+00
       O  3.99665e+00 -2.15545e+00 -7.67237e+00
       H  4.01466e+00 -2.09508e+00 -9.45267e+00
       H  4.09796e+00 -6.35898e-01 -7.04978e+00
       O  2.77045e-01 -9.87455e+00  6.50364e-01
       H -1.47797e+00 -1.07590e+01  1.79415e-01
       H  1.73703e+00 -1.09750e+01  1.83093e-01
       O  4.54819e+00 -2.52689e+00  6.17278e-01
       H  2.98167e+00 -3.74634e+00  1.57487e-01
       H  6.01209e+00 -3.64607e+00  6.57804e-01
       O  4.61679e+00 -1.25567e+01  1.31357e+01
       H  4.55398e+00 -1.43589e+01  1.35223e+01
       H  4.26888e+00 -1.25582e+01  1.11038e+01
       O  3.22988e-01 -5.18928e+00  1.30238e+01
       H  4.52894e-01 -7.18189e+00  1.37039e+01
       H  7.14097e-02 -5.13999e+00  1.11792e+01
       O  3.98486e+00 -1.21548e+01  7.56775e+00
       H  2.57559e+00 -1.10465e+01  6.86102e+00
       H  5.23291e+00 -1.12345e+01  7.25566e+00
       O -2.85117e-01 -4.78853e+00  7.56459e+00
       H -1.96311e+00 -3.92923e+00  7.37935e+00
       H  1.23473e+00 -3.80596e+00  7.16119e+00
       O -3.57532e-01 -9.54545e+00  6.09503e+00
       H -4.10493e-01 -9.57000e+00  4.28480e+00
       H -7.57505e-02 -7.71161e+00  6.86594e+00
       O  3.94297e+00 -2.21143e+00  6.10666e+00
       H  4.27834e+00 -2.16716e+00  4.19367e+00
       H  4.26889e+00 -2.39308e-01  6.75868e+00
       O  2.64367e-01  4.83728e+00 -1.31920e+01
       H -1.18554e+00  3.82558e+00 -1.34383e+01
       H  1.59622e+00  3.85725e+00 -1.35140e+01
       O  4.50349e+00  1.21084e+01 -1.31617e+01
       H  3.03152e+00  1.10252e+01 -1.36925e+01
       H  6.13167e+00  1.14130e+01 -1.35313e+01
       O  4.52852e+00  2.14994e+00 -8.04422e-01
       H  4.84658e+00  5.10229e-01 -6.26354e-02
       H  4.00824e+00  2.01402e+00 -2.60346e+00
       O  2.83880e-01  9.53983e+00 -8.07789e-01
       H  3.89327e-01  7.77810e+00 -1.20786e-01
       H  1.79011e-01  9.57461e+00 -2.56416e+00
       O  4.02630e+00  2.61248e+00 -6.27508e+00
       H  2.65340e+00  3.33034e+00 -6.72699e+00
       H  5.50931e+00  3.70067e+00 -6.31546e+00
       O -2.95758e-01  9.94035e+00 -6.17951e+00
       H -1.75753e+00  1.09202e+01 -6.41673e+00
       H  1.49198e+00  1.09836e+01 -6.60878e+00
       O -2.93450e-01  5.17241e+00 -7.70352e+00
       H -3.46394e-02  5.45523e+00 -9.58779e+00
       H -3.38404e-01  7.02217e+00 -7.06870e+00
       O  3.99543e+00  1.25928e+01 -7.67504e+00
       H  4.36919e+00  1.26554e+01 -9.52691e+00
       H  4.00122e+00  1.43800e+01 -7.25532e+00
       O  2.48741e-01  4.76474e+00  7.00196e-01
       H -1.07439e+00  3.58160e+00  1.85084e-01
       H  1.77631e+00  3.84757e+00  3.14447e-01
       O  4.58583e+00  1.20893e+01  6.75394e-01
       H  2.91472e+00  1.10471e+01  3.92647e-01
       H  6.13330e+00  1.10106e+01  6.35764e-01
       O  4.51049e+00  2.26182e+00  1.30535e+01
       H  4.50385e+00  5.46788e-01  1.38872e+01
       H  4.42471e+00  2.40187e+00  1.10540e+01
       O  2.26337e-01  9.52025e+00  1.30422e+01
       H  5.15084e-01  7.70475e+00  1.34112e+01
       H  2.85656e-02  9.42314e+00  1.12036e+01
       O  4.00175e+00  2.57256e+00  7.61198e+00
       H  2.34228e+00  3.61788e+00  7.28884e+00
       H  5.54563e+00  3.63484e+00  7.28275e+00
       O -2.23823e-01  9.98505e+00  7.57816e+00
       H -1.67179e+00  1.11301e+01  7.22654e+00
       H  9.89133e-01  1.11619e+01  7.13191e+00
       O -2.86348e-01  5.17788e+00  6.12804e+00
       H  5.82315e-03  5.36318e+00  4.31421e+00
       H  6.23313e-02  7.19263e+00  6.59622e+00
       O  3.97911e+00  1.26275e+01  6.12431e+00
       H  4.00985e+00  1.27486e+01  4.52994e+00
       H  4.04003e+00  1.44523e+01  6.68923e+00
192
# CELL(abcABC):   16.99620    29.43815    27.67315    90.00000    90.00000    90.00000  Step:          30  Bead:      29 positions{atomic_unit}  cell{atomic_unit}
       O -8.16571e+00 -9.98150e+00 -1.32703e+01
       H  7.41435e+00 -1.10217e+01 -1.33602e+01
       H -6.64823e+00 -1.10269e+01 -1.35199e+01
       O -3.89545e+00 -2.57207e+00 -1.31416e+01
       H -5.38859e+00 -3.74114e+00 -1.35085e+01
       H -2.15076e+00 -3.78392e+00 -1.32940e+01
       O -3.91999e+00 -1.25627e+01 -9.06296e-01
       H -3.87009e+00 -1.43593e+01 -3.74650e-01
       H -4.20601e+00 -1.23830e+01 -2.80275e+00
       O -8.26478e+00 -5.20969e+00 -8.02347e-01
       H -8.18813e+00 -7.02093e+00 -4.83886e-01
       H -8.42546e+00 -5.16518e+00 -2.58167e+00
       O -4.54271e+00 -1.21143e+01 -6.28008e+00
       H -6.01325e+00 -1.10112e+01 -6.70680e+00
       H -3.21605e+00 -1.10159e+01 -6.67325e+00
       O  8.17741e+00 -4.78784e+00 -6.23405e+00
       H  6.62086e+00 -3.63850e+00 -6.53046e+00
       H -7.17566e+00 -3.61475e+00 -6.95450e+00
       O  8.28512e+00 -9.48695e+00 -7.75189e+00
       H  8.30641e+00 -9.43058e+00 -9.33684e+00
       H  8.17114e+00 -7.81202e+00 -7.06030e+00
       O -4.54284e+00 -2.11018e+00 -7.73113e+00
       H -4.41663e+00 -2.08369e+00 -9.51799e+00
       H -4.43161e+00 -3.94273e-01 -7.05836e+00
       O -8.25217e+00 -9.94568e+00  6.93086e-01
       H  7.23539e+00 -1.09499e+01  2.56603e-01
       H -6.68834e+00 -1.11170e+01  2.79552e-01
       O -3.96515e+00 -2.64827e+00  7.55767e-01
       H -5.41811e+00 -3.56684e+00  1.47744e-01
       H -2.54514e+00 -3.91389e+00  5.20243e-01
       O -3.98931e+00 -1.24811e+01  1.30761e+01
       H -4.01227e+00 -1.42181e+01  1.36265e+01
       H -4.33286e+00 -1.23654e+01  1.12501e+01
       O -8.26884e+00 -5.15926e+00  1.30818e+01
       H -8.13663e+00 -7.15780e+00  1.35561e+01