192
# CELL(abcABC):   16.99620    29.43815    27.67315    90.00000    90.00000    90.00000  Step:           0  Bead:       1 positions{atomic_unit}  cell{atomic_unit}
       O -8.22215e+00 -9.94239e+00 -1.31733e+01
       H  7.30664e+00 -1.09711e+01 -1.36322e+01
       H -6.70615e+00 -1.09482e+01 -1.35006e+01
       O -3.97298e+00 -2.58228e+00 -1.31734e+01
       H -5.44033e+00 -3.61131e+00 -1.36317e+01
       H -2.45697e+00 -3.58820e+00 -1.35005e+01
       O -3.95756e+00 -1.25543e+01 -7.82386e-01
       H -3.95604e+00 -1.43515e+01 -2.29143e-01
       H -4.14759e+00 -1.25671e+01 -2.59983e+00
       O -8.20667e+00 -5.19495e+00 -7.82227e-01
       H -8.20527e+00 -6.99211e+00 -2.28860e-01
       H -8.39642e+00 -5.20788e+00 -2.59970e+00
       O -4.52495e+00 -1.21366e+01 -6.25523e+00
       H -6.04104e+00 -1.11308e+01 -6.58223e+00
       H -3.05766e+00 -1.11077e+01 -6.71383e+00
       O  8.22247e+00 -4.77716e+00 -6.25561e+00
       H  6.70639e+00 -3.77128e+00 -6.58235e+00
       H -7.30644e+00 -3.74813e+00 -6.71411e+00
       O  8.20650e+00 -9.52435e+00 -7.70064e+00
       H  8.39647e+00 -9.51190e+00 -9.51809e+00
       H  8.20529e+00 -7.72704e+00 -7.14768e+00
       O -4.54027e+00 -2.16431e+00 -7.70075e+00
       H -4.35006e+00 -2.15153e+00 -9.51816e+00
       H -4.54166e+00 -3.67089e-01 -7.14744e+00
       O -8.22211e+00 -9.94193e+00  6.63469e-01
       H  7.30672e+00 -1.09707e+01  2.04633e-01
       H -6.70609e+00 -1.09478e+01  3.36365e-01
       O -3.97290e+00 -2.58257e+00  6.63081e-01
       H -5.44032e+00 -3.61148e+00  2.04655e-01
       H -2.45688e+00 -3.58848e+00  3.35971e-01
       O -3.95760e+00 -1.25545e+01  1.30538e+01
       H -3.95614e+00 -1.43517e+01  1.36071e+01
       H -4.14757e+00 -1.25673e+01  1.12363e+01
       O -8.20656e+00 -5.19529e+00  1.30545e+01
       H -8.20517e+00 -6.99250e+00  1.36078e+01
       H -8.39634e+00 -5.20824e+00  1.12370e+01
       O -4.52490e+00 -1.21367e+01  7.58138e+00
       H -6.04102e+00 -1.11309e+01  7.25435e+00
       H -3.05757e+00 -1.11078e+01  7.12272e+00
       O  8.22232e+00 -4.77760e+00  7.58065e+00
       H  6.70627e+00 -3.77169e+00  7.25392e+00
       H -7.30657e+00 -3.74862e+00  7.12211e+00
       O  8.20656e+00 -9.52478e+00  6.13597e+00
       H  8.39651e+00 -9.51229e+00  4.31849e+00
       H  8.20527e+00 -7.72747e+00  6.68889e+00
       O -4.54025e+00 -2.16471e+00  6.13560e+00
       H -4.34999e+00 -2.15183e+00  4.31818e+00
       H -4.54168e+00 -3.67533e-01  6.68897e+00
       O -8.22212e+00  4.77724e+00 -1.31733e+01
       H  7.30671e+00  3.74833e+00 -1.36320e+01
       H -6.70607e+00  3.77135e+00 -1.35002e+01
       O -3.97288e+00  1.21369e+01 -1.31734e+01
       H -5.44030e+00  1.11079e+01 -1.36317e+01
       H -2.45689e+00  1.11310e+01 -1.35006e+01
       O -3.95757e+00  2.16435e+00 -7.82368e-01
       H -3.95607e+00  3.67109e-01 -2.29207e-01
       H -4.14756e+00  2.15166e+00 -2.59983e+00
       O -8.20667e+00  9.52420e+00 -7.81868e-01
       H -8.20527e+00  7.72699e+00 -2.28645e-01
       H -8.39652e+00  9.51128e+00 -2.59932e+00
       O -4.52494e+00  2.58246e+00 -6.25501e+00
       H -6.04100e+00  3.58821e+00 -6.58223e+00
       H -3.05758e+00  3.61139e+00 -6.71360e+00
       O  8.22236e+00  9.94146e+00 -6.25587e+00
       H  6.70631e+00  1.09474e+01 -6.58279e+00
       H -7.30653e+00  1.09705e+01 -6.71435e+00
       O  8.20665e+00  5.19438e+00 -7.70097e+00
       H  8.39659e+00  5.20693e+00 -9.51844e+00
       H  8.20533e+00  6.99167e+00 -7.14797e+00
       O -4.54026e+00  1.25545e+01 -7.70081e+00
       H -4.34992e+00  1.25674e+01 -9.51823e+00
       H -4.54169e+00  1.43517e+01 -7.14749e+00
       O -8.22210e+00  4.77691e+00  6.62996e-01
       H  7.30665e+00  3.74808e+00  2.04431e-01
       H -6.70613e+00  3.77091e+00  3.36028e-01
       O -3.97279e+00  1.21369e+01  6.63306e-01
       H -5.44019e+00  1.11079e+01  2.05006e-01
       H -2.45681e+00  1.11309e+01  3.36133e-01
       O -3.95757e+00  2.16479e+00  1.30545e+01
       H -3.95616e+00  3.67575e-01  1.36077e+01
       H -4.14769e+00  2.15200e+00  1.12370e+01
       O -8.20659e+00  9.52434e+00  1.30546e+01
       H -8.20522e+00  7.72713e+00  1.36079e+01
       H -8.39644e+00  9.51145e+00  1.12371e+01
       O -4.52499e+00  2.58228e+00  7.58148e+00
       H -6.04100e+00  3.58814e+00  7.25437e+00
       H -3.05766e+00  3.61126e+00  7.12297e+00
       O  8.22229e+00  9.94203e+00  7.58108e+00
       H  6.70627e+00  1.09480e+01  7.25419e+00
       H -7.30655e+00  1.09710e+01  7.12260e+00
       O  8.20668e+00  5.19493e+00  6.13567e+00
       H  8.39670e+00  5.20749e+00  4.31823e+00
       H  8.20535e+00  6.99219e+00  6.68874e+00
       O -4.54018e+00  1.25546e+01  6.13603e+00
       H -4.34989e+00  1.25674e+01  4.31861e+00
       H -4.54161e+00  1.43518e+01  6.68925e+00
       O  2.75877e-01 -9.94198e+00 -1.31737e+01
       H -1.19147e+00 -1.09709e+01 -1.36323e+01
       H  1.79191e+00 -1.09478e+01 -1.35009e+01
       O  4.52479e+00 -2.58220e+00 -1.31736e+01
       H  3.05750e+00 -3.61120e+00 -1.36322e+01
       H  6.04084e+00 -3.58815e+00 -1.35003e+01
       O  4.54038e+00 -1.25538e+01 -7.82378e-01
       H  4.54166e+00 -1.43510e+01 -2.29173e-01
       H  4.35042e+00 -1.25666e+01 -2.59983e+00
       O  2.91382e-01 -5.19489e+00 -7.82498e-01
       H  2.92775e-01 -6.99208e+00 -2.29179e-01
       H  1.01240e-01 -5.20770e+00 -2.59994e+00
       O  3.97307e+00 -1.21369e+01 -6.25482e+00
       H  2.45707e+00 -1.11310e+01 -6.58187e+00
       H  5.44043e+00 -1.11080e+01 -6.71350e+00
       O -2.76167e-01 -4.77714e+00 -6.25484e+00
       H -1.79215e+00 -3.77120e+00 -6.58193e+00
       H  1.19122e+00 -3.74822e+00 -6.71327e+00
       O -2.91294e-01 -9.52406e+00 -7.70061e+00
       H -1.01153e-01 -9.51128e+00 -9.51804e+00
       H -2.92737e-01 -7.72684e+00 -7.14734e+00
       O  3.95740e+00 -2.16468e+00 -7.70029e+00
       H  4.14711e+00 -2.15178e+00 -9.51779e+00
       H  3.95613e+00 -3.67477e-01 -7.14700e+00
       O  2.75838e-01 -9.94166e+00  6.63265e-01
       H -1.19143e+00 -1.09706e+01  2.04532e-01
       H  1.79197e+00 -1.09474e+01  3.36068e-01
       O  4.52471e+00 -2.58218e+00  6.62891e-01
       H  3.05743e+00 -3.61117e+00  2.04240e-01
       H  6.04080e+00 -3.58806e+00  3.36089e-01
       O  4.54037e+00 -1.25543e+01  1.30539e+01
       H  4.54173e+00 -1.43516e+01  1.36070e+01
       H  4.35050e+00 -1.25670e+01  1.12364e+01
       O  2.91297e-01 -5.19502e+00  1.30541e+01
       H  2.92732e-01 -6.99225e+00  1.36074e+01
       H  1.01206e-01 -5.20786e+00  1.12367e+01
       O  3.97310e+00 -1.21368e+01  7.58177e+00
       H  2.45707e+00 -1.11309e+01  7.25464e+00
       H  5.44051e+00 -1.11080e+01  7.12302e+00
       O -2.76100e-01 -4.77767e+00  7.58136e+00
       H -1.79210e+00 -3.77177e+00  7.25428e+00
       H  1.19125e+00 -3.74871e+00  7.12290e+00
       O -2.91340e-01 -9.52458e+00  6.13593e+00
       H -1.01282e-01 -9.51181e+00  4.31852e+00
       H -2.92762e-01 -7.72734e+00  6.68916e+00
       O  3.95728e+00 -2.16475e+00  6.13602e+00
       H  4.14704e+00 -2.15175e+00  4.31853e+00
       H  3.95603e+00 -3.67615e-01  6.68942e+00
       O  2.75872e-01  4.77775e+00 -1.31735e+01
       H -1.19145e+00  3.74868e+00 -1.36320e+01
       H  1.79192e+00  3.77189e+00 -1.35005e+01
       O  4.52473e+00  1.21369e+01 -1.31737e+01
       H  3.05744e+00  1.11080e+01 -1.36325e+01
       H  6.04082e+00  1.11311e+01 -1.35004e+01
       O  4.54033e+00  2.16480e+00 -7.82502e-01
       H  4.54166e+00  3.67553e-01 -2.29384e-01
       H  4.35052e+00  2.15214e+00 -2.60000e+00
       O  2.91442e-01  9.52423e+00 -7.82681e-01
       H  2.92837e-01  7.72701e+00 -2.29452e-01
       H  1.01299e-01  9.51146e+00 -2.60013e+00
       O  3.97319e+00  2.58230e+00 -6.25496e+00
       H  2.45717e+00  3.58819e+00 -6.58198e+00
       H  5.44056e+00  3.61109e+00 -6.71379e+00
       O -2.76125e-01  9.94167e+00 -6.25515e+00
       H -1.79212e+00  1.09476e+01 -6.58222e+00
       H  1.19126e+00  1.09706e+01 -6.71377e+00
       O -2.91369e-01  5.19475e+00 -7.70046e+00
       H -1.01380e-01  5.20765e+00 -9.51793e+00
       H -2.92793e-01  6.99195e+00 -7.14718e+00
       O  3.95737e+00  1.25543e+01 -7.70076e+00
       H  4.14703e+00  1.25673e+01 -9.51824e+00
       H  3.95606e+00  1.43514e+01 -7.14726e+00
       O  2.75794e-01  4.77734e+00  6.62959e-01
       H -1.19152e+00  3.74832e+00  2.04499e-01
       H  1.79186e+00  3.77147e+00  3.35887e-01
       O  4.52464e+00  1.21373e+01  6.62988e-01
       H  3.05745e+00  1.11082e+01  2.04218e-01
       H  6.04076e+00  1.11314e+01  3.36450e-01
       O  4.54041e+00  2.16499e+00  1.30543e+01
       H  4.54178e+00  3.67749e-01  1.36074e+01
       H  4.35054e+00  2.15228e+00  1.12368e+01
       O  2.91308e-01  9.52457e+00  1.30538e+01
       H  2.92715e-01  7.72735e+00  1.36071e+01
       H  1.01225e-01  9.51181e+00  1.12363e+01
       O  3.97315e+00  2.58235e+00  7.58152e+00
       H  2.45713e+00  3.58829e+00  7.25455e+00
       H  5.44048e+00  3.61122e+00  7.12279e+00
       O -2.76008e-01  9.94202e+00  7.58171e+00
       H -1.79205e+00  1.09479e+01  7.25468e+00
       H  1.19134e+00  1.09710e+01  7.12317e+00
       O -2.91416e-01  5.19510e+00  6.13606e+00
       H -1.01371e-01  5.20795e+00  4.31863e+00
       H -2.92777e-01  6.99228e+00  6.68938e+00
       O  3.95729e+00  1.25546e+01  6.13612e+00
       H  4.14688e+00  1.25676e+01  4.31864e+00
       H  3.95603e+00  1.43518e+01  6.68952e+00
192
# CELL(abcABC):   16.99620    29.43815    27.67315    90.00000    90.00000    90.00000  Step:          10  Bead:       1 positions{atomic_unit}  cell{atomic_unit}
       O -8.22271e+00 -9.94173e+00 -1.31907e+01
       H  7.05717e+00 -1.08961e+01 -1.36521e+01
       H -6.79732e+00 -1.12201e+01 -1.36723e+01
       O -3.90324e+00 -2.51975e+00 -1.31883e+01
       H -5.47211e+00 -3.60938e+00 -1.34806e+01
       H -2.45741e+00 -3.76463e+00 -1.34635e+01
       O -3.94618e+00 -1.25925e+01 -7.72972e-01
       H -4.16261e+00 -1.44718e+01 -4.29180e-01
       H -4.19475e+00 -1.24823e+01 -2.44855e+00
       O -8.16283e+00 -5.12437e+00 -7.33718e-01
       H -8.38182e+00 -6.87258e+00 -4.84027e-01
       H -8.45004e+00 -4.79703e+00 -2.61614e+00
       O -4.49093e+00 -1.20874e+01 -6.20091e+00
       H -6.04911e+00 -1.12086e+01 -6.65576e+00
       H -3.17697e+00 -1.12330e+01 -6.57191e+00
       O  8.23186e+00 -4.77347e+00 -6.31053e+00
       H  6.52695e+00 -3.53741e+00 -6.57928e+00
       H -7.24423e+00 -3.70654e+00 -6.64167e+00
       O  8.20815e+00 -9.56152e+00 -7.64260e+00
       H  8.32212e+00 -9.54171e+00 -9.48172e+00
       H  7.96714e+00 -7.84713e+00 -7.26120e+00
       O -4.49744e+00 -2.13660e+00 -7.67420e+00
       H -4.39336e+00 -2.08022e+00 -9.49556e+00
       H -4.77818e+00 -4.42630e-01 -6.94105e+00
       O -8.30795e+00 -9.97731e+00  6.49138e-01
       H  7.16751e+00 -1.09806e+01  3.88420e-02
       H -6.84118e+00 -1.09007e+01  2.55493e-01
       O -3.96228e+00 -2.61943e+00  7.37575e-01
       H -5.20943e+00 -3.53572e+00  2.42117e-01
       H -2.65178e+00 -3.73248e+00  7.18863e-01
       O -3.93660e+00 -1.25346e+01  1.30242e+01
       H -4.21011e+00 -1.43751e+01  1.34364e+01
       H -4.14250e+00 -1.28198e+01  1.13009e+01
       O -8.25228e+00 -5.15171e+00  1.30745e+01
       H -8.11790e+00 -6.95152e+00  1.36411e+01
       H -8.13178e+00 -5.40520e+00  1.10722e+01
       O -4.49707e+00 -1.21189e+01  7.54040e+00
       H -5.96580e+00 -1.13205e+01  7.20548e+00
       H -2.96390e+00 -1.10889e+01  7.52100e+00
       O  8.30973e+00 -4.76501e+00  7.53438e+00
       H  6.96476e+00 -3.54682e+00  7.37943e+00
       H -7.22422e+00 -3.73384e+00  6.71988e+00
       O  8.19593e+00 -9.46269e+00  6.14127e+00
       H  8.28973e+00 -9.56890e+00  4.21696e+00
       H  7.99782e+00 -7.68820e+00  6.71201e+00
       O -4.52266e+00 -2.15890e+00  6.13589e+00
       H -4.37547e+00 -2.30683e+00  4.43525e+00
       H -4.45094e+00 -3.33534e-01  6.82601e+00
       O -8.19776e+00  4.79022e+00 -1.32329e+01
       H  7.24147e+00  3.60429e+00 -1.36403e+01
       H -6.66778e+00  3.81183e+00 -1.33830e+01
       O -4.00677e+00  1.21803e+01 -1.31705e+01
       H -5.53289e+00  1.11387e+01 -1.36564e+01
       H -2.62105e+00  1.10697e+01 -1.34964e+01
       O -3.89968e+00  2.11104e+00 -8.41537e-01
       H -4.18162e+00  3.90406e-01 -6.80191e-01
       H -4.23220e+00  1.94674e+00 -2.61514e+00
       O -8.23942e+00  9.53926e+00 -7.90039e-01
       H -8.35521e+00  7.71558e+00 -2.08817e-01
       H -8.40613e+00  9.33814e+00 -2.65854e+00
       O -4.52751e+00  2.57800e+00 -6.19076e+00
       H -6.02896e+00  3.57009e+00 -6.67779e+00
       H -3.19063e+00  3.17916e+00 -7.05086e+00
       O  8.19310e+00  1.00086e+01 -6.25384e+00
       H  6.58346e+00  1.09817e+01 -6.85438e+00
       H -7.23864e+00  1.09547e+01 -6.53604e+00
       O  8.25926e+00  5.18632e+00 -7.69200e+00
       H  8.36985e+00  5.36151e+00 -9.52394e+00
       H  8.44377e+00  7.04451e+00 -7.15643e+00
       O -4.54145e+00  1.25464e+01 -7.68205e+00
       H -4.43577e+00  1.23974e+01 -9.56789e+00
       H -4.20645e+00  1.44087e+01 -7.42525e+00
       O -8.27077e+00  4.80201e+00  6.50716e-01
       H  7.37712e+00  3.68186e+00  2.36952e-01
       H -6.77387e+00  3.79573e+00  2.55961e-01
       O -3.93171e+00  1.21419e+01  6.50433e-01
       H -5.37784e+00  1.11118e+01  2.92991e-01
       H -2.66178e+00  1.10913e+01  4.80487e-01
       O -3.99033e+00  2.11841e+00  1.30028e+01
       H -3.68386e+00  3.50084e-02  1.36889e+01
       H -4.35647e+00  2.25872e+00  1.11824e+01
       O -8.25641e+00  9.49888e+00  1.30460e+01
       H -8.46211e+00  7.70525e+00  1.33686e+01
       H -8.32750e+00  9.63680e+00  1.11264e+01
       O -4.50860e+00  2.56420e+00  7.62849e+00
       H -6.04673e+00  3.46959e+00  7.31445e+00
       H -3.08031e+00  3.42480e+00  7.06606e+00
       O  8.22976e+00  9.93335e+00  7.52937e+00
       H  6.57380e+00  1.11536e+01  7.44332e+00
       H -7.35208e+00  1.09374e+01  7.10515e+00
       O  8.22529e+00  5.20993e+00  6.13091e+00
       H  8.40686e+00  5.30748e+00  4.02707e+00
       H  8.11133e+00  6.93081e+00  6.79091e+00
       O -4.54529e+00  1.26053e+01  6.12040e+00
       H -4.47182e+00  1.26657e+01  4.26580e+00
       H -4.62400e+00  1.42138e+01  6.78553e+00
       O  2.76868e-01 -9.90039e+00 -1.31334e+01
       H -1.33006e+00 -1.08663e+01 -1.35581e+01
       H  1.79734e+00 -1.09411e+01 -1.31362e+01
       O  4.58333e+00 -2.56805e+00 -1.31393e+01
       H  3.05104e+00 -3.72552e+00 -1.39069e+01
       H  6.14742e+00 -3.66942e+00 -1.36470e+01
       O  4.59298e+00 -1.26216e+01 -7.11298e-01
       H  4.81804e+00 -1.43910e+01 -2.67972e-01
       H  4.21320e+00 -1.24962e+01 -2.51196e+00
       O  2.68377e-01 -5.17266e+00 -7.90698e-01
       H  4.55143e-01 -6.95096e+00 -2.68243e-01
       H -1.34067e-01 -5.26698e+00 -2.78280e+00
       O  3.93904e+00 -1.20814e+01 -6.25275e+00
       H  2.26508e+00 -1.06714e+01 -6.41941e+00
       H  5.47510e+00 -1.12274e+01 -6.85243e+00
       O -3.42735e-01 -4.82125e+00 -6.20927e+00
       H -1.76780e+00 -3.70782e+00 -6.38724e+00
       H  1.23556e+00 -3.76160e+00 -6.51470e+00
       O -3.50703e-01 -9.55288e+00 -7.68521e+00
       H -5.60606e-02 -9.61464e+00 -9.51466e+00
       H -4.63099e-01 -7.46295e+00 -7.13141e+00
       O  4.01525e+00 -2.19880e+00 -7.75961e+00
       H  4.28106e+00 -2.21892e+00 -9.38325e+00
       H  4.07562e+00 -6.34538e-01 -7.05624e+00
       O  2.63014e-01 -9.98899e+00  7.17153e-01
       H -1.14200e+00 -1.10729e+01  1.80133e-01
       H  1.84957e+00 -1.07256e+01  1.58995e-01
       O  4.52186e+00 -2.59179e+00  6.91650e-01
       H  2.99241e+00 -3.85416e+00  3.80835e-01
       H  5.96122e+00 -3.61764e+00  3.72140e-01
       O  4.53674e+00 -1.25004e+01  1.31423e+01
       H  4.52999e+00 -1.43599e+01  1.36603e+01
       H  4.29977e+00 -1.25870e+01  1.13502e+01
       O  3.46507e-01 -5.18166e+00  1.30662e+01
       H  4.24035e-01 -7.10399e+00  1.33095e+01
       H  1.20080e-01 -5.12040e+00  1.10221e+01
       O  3.92887e+00 -1.21329e+01  7.54598e+00
       H  2.53648e+00 -1.09371e+01  7.42529e+00
       H  5.06845e+00 -1.09555e+01  7.27879e+00
       O -2.91833e-01 -4.81479e+00  7.50989e+00
       H -1.56105e+00 -3.63307e+00  7.08638e+00
       H  1.38171e+00 -3.57222e+00  7.09506e+00
       O -3.19984e-01 -9.51477e+00  6.10254e+00
       H -2.70146e-01 -9.45150e+00  4.39108e+00
       H -3.91477e-02 -7.79145e+00  6.62150e+00
       O  3.98732e+00 -2.14222e+00  6.14412e+00
       H  4.14544e+00 -2.00112e+00  4.17756e+00
       H  4.02931e+00 -3.26182e-01  6.72521e+00
       O  2.88847e-01  4.69980e+00 -1.31012e+01
       H -1.01863e+00  3.91349e+00 -1.38316e+01
       H  1.54938e+00  3.89877e+00 -1.35468e+01
       O  4.48231e+00  1.21265e+01 -1.32047e+01
       H  3.11676e+00  1.10368e+01 -1.36768e+01
       H  6.21405e+00  1.12763e+01 -1.35622e+01
       O  4.53541e+00  2.16449e+00 -7.81628e-01
       H  4.58464e+00  5.24734e-01 -2.79910e-01
       H  4.14241e+00  2.43393e+00 -2.43998e+00
       O  2.46405e-01  9.51165e+00 -7.38614e-01
       H  3.52567e-01  7.62924e+00 -1.69751e-01
       H  4.25483e-01  9.56718e+00 -2.54402e+00
       O  4.01063e+00  2.58247e+00 -6.21092e+00
       H  2.59021e+00  3.71962e+00 -6.72924e+00
       H  5.46972e+00  3.64232e+00 -6.60847e+00
       O -2.24399e-01  9.89069e+00 -6.31421e+00
       H -1.87606e+00  1.09233e+01 -6.87239e+00
       H  1.33179e+00  1.09263e+01 -7.00414e+00
       O -2.63830e-01  5.21530e+00 -7.71886e+00
       H  5.66451e-04  5.30622e+00 -9.62295e+00
       H -3.02414e-01  7.09129e+00 -7.27565e+00
       O  3.99750e+00  1.25940e+01 -7.69078e+00
       H  4.06928e+00  1.23655e+01 -9.39364e+00
       H  3.97413e+00  1.43335e+01 -7.41384e+00
       O  2.64412e-01  4.78241e+00  5.83095e-01
       H -1.21533e+00  3.64396e+00  2.05668e-01
       H  1.94564e+00  3.62641e+00  6.64282e-01
       O  4.51939e+00  1.21180e+01  6.49165e-01
       H  3.13059e+00  1.08127e+01  2.64424e-01
       H  6.26940e+00  1.12959e+01  2.65037e-01
       O  4.53451e+00  2.21069e+00  1.31069e+01
       H  4.57924e+00  5.34684e-01  1.36301e+01
       H  4.54729e+00  2.22053e+00  1.12248e+01
       O  2.54525e-01  9.48366e+00  1.29158e+01
       H  1.60254e-01  7.73864e+00  1.37021e+01
       H -3.01466e-02  9.49965e+00  1.11991e+01
       O  3.97752e+00  2.64811e+00  7.58182e+00
       H  2.38974e+00  3.75773e+00  7.31469e+00
       H  5.55749e+00  3.67957e+00  6.86977e+00
       O -2.70191e-01  9.90200e+00  7.65958e+00
       H -1.80608e+00  1.09973e+01  7.44451e+00
       H  1.06312e+00  1.08511e+01  6.91218e+00
       O -3.34698e-01  5.21743e+00  6.20352e+00
       H -3.10356e-01  5.29366e+00  4.37125e+00
       H -8.04642e-02  6.87366e+00  6.57651e+00
       O  3.95207e+00  1.26205e+01  6.07675e+00
       H  3.92868e+00  1.26531e+01  4.38793e+00
       H  3.92763e+00  1.45440e+01  6.35152e+00
192
# CELL(abcABC):   16.99620    29.43815    27.67315    90.00000    90.00000    90.00000  Step:          20  Bead:       1 positions{atomic_unit}  cell{atomic_unit}
       O -8.13402e+00 -9.95670e+00 -1.31709e+01
       H  7.28570e+00 -1.05868e+01 -1.36183e+01
       H -6.84527e+00 -1.15117e+01 -1.37676e+01
       O -3.81055e+00 -2.53520e+00 -1.31612e+01
       H -5.47207e+00 -3.46388e+00 -1.36037e+01
       H -2.27479e+00 -3.80316e+00 -1.35945e+01
       O -3.85758e+00 -1.26696e+01 -8.02367e-01
       H -4.14802e+00 -1.44010e+01 -4.65936e-01
       H -4.29117e+00 -1.22997e+01 -2.61104e+00
       O -8.22035e+00 -5.16067e+00 -7.60462e-01
       H -8.46622e+00 -6.95004e+00 -3.14806e-01
       H -8.39280e+00 -4.99065e+00 -2.56518e+00
       O -4.52001e+00 -1.21210e+01 -6.17689e+00
       H -6.15273e+00 -1.10649e+01 -7.11303e+00
       H -2.92376e+00 -1.12757e+01 -6.41435e+00
       O  8.16937e+00 -4.82561e+00 -6.24740e+00
       H  6.91735e+00 -3.35474e+00 -6.57744e+00
       H -7.23765e+00 -3.85768e+00 -6.89717e+00
       O  8.21002e+00 -9.51788e+00 -7.67587e+00
       H  8.24231e+00 -9.36452e+00 -9.61678e+00
       H  7.89291e+00 -7.85816e+00 -7.05387e+00
       O -4.50373e+00 -2.19560e+00 -7.63830e+00
       H -4.25525e+00 -2.05228e+00 -9.73565e+00
       H -4.71634e+00 -1.60206e-01 -7.01336e+00
       O -8.35651e+00 -9.97115e+00  5.82144e-01
       H  7.16177e+00 -1.13106e+01  6.13648e-02
       H -6.67074e+00 -1.08551e+01  2.85054e-01
       O -3.98419e+00 -2.57363e+00  7.55453e-01
       H -5.52077e+00 -3.46407e+00  8.46457e-02
       H -2.73344e+00 -3.84197e+00  6.82766e-01
       O -3.94290e+00 -1.24559e+01  1.30233e+01
       H -4.51828e+00 -1.46573e+01  1.35107e+01
       H -3.98712e+00 -1.26038e+01  1.09656e+01
       O -8.25744e+00 -5.13300e+00  1.30234e+01
       H -7.91141e+00 -6.98011e+00  1.36044e+01
       H -8.06754e+00 -5.11789e+00  1.12380e+01
       O -4.50219e+00 -1.21675e+01  7.48269e+00
       H -6.18647e+00 -1.11590e+01  7.00400e+00
       H -3.14761e+00 -1.10651e+01  7.45090e+00
       O  8.36315e+00 -4.82062e+00  7.49364e+00
       H  6.98722e+00 -3.50837e+00  7.67215e+00
       H -7.16825e+00 -3.78122e+00  6.89323e+00
       O  8.16396e+00 -9.46552e+00  6.08575e+00
       H  7.98178e+00 -9.51625e+00  4.26335e+00
       H  7.96301e+00 -7.48609e+00  6.63155e+00
       O -4.49680e+00 -2.15338e+00  6.16047e+00
       H -4.57425e+00 -2.23350e+00  4.31671e+00
       H -4.47591e+00 -4.09699e-01  6.90099e+00
       O -8.11093e+00  4.79678e+00 -1.32111e+01
       H  7.47324e+00  3.47620e+00 -1.34956e+01
       H -6.53517e+00  3.95284e+00 -1.32697e+01
       O -4.02152e+00  1.22019e+01 -1.31008e+01
       H -5.78502e+00  1.09432e+01 -1.36126e+01
       H -2.76209e+00  1.09522e+01 -1.32977e+01
       O -3.90458e+00  2.11487e+00 -8.90799e-01
       H -4.48929e+00  3.09323e-01 -6.71521e-01
       H -4.34292e+00  1.95456e+00 -2.81822e+00
       O -8.24701e+00  9.57114e+00 -7.83168e-01
       H -8.34329e+00  7.66183e+00 -5.84976e-02
       H -8.28860e+00  9.41541e+00 -2.70477e+00
       O -4.54697e+00  2.55369e+00 -6.15115e+00
       H -6.03761e+00  3.62564e+00 -6.67313e+00
       H -3.13646e+00  3.32726e+00 -7.20559e+00
       O  8.15415e+00  9.90196e+00 -6.26727e+00
       H  6.61061e+00  1.08136e+01 -6.75151e+00
       H -7.40298e+00  1.10682e+01 -6.59221e+00
       O  8.29473e+00  5.23102e+00 -7.70171e+00
       H  8.50710e+00  5.20242e+00 -9.57664e+00
       H  8.14017e+00  7.14305e+00 -7.16832e+00
       O -4.54439e+00  1.26312e+01 -7.73718e+00
       H -4.65332e+00  1.23396e+01 -9.42219e+00
       H -4.30308e+00  1.43358e+01 -7.23830e+00
       O -8.27472e+00  4.88484e+00  6.21223e-01
       H  7.20232e+00  3.31044e+00  3.77928e-01
       H -6.79402e+00  3.91869e+00  4.21978e-02
       O -3.96544e+00  1.21477e+01  6.49410e-01
       H -5.66145e+00  1.12218e+01  4.39378e-01
       H -2.32745e+00  1.10554e+01  8.25293e-01
       O -3.98961e+00  2.15551e+00  1.29746e+01
       H -3.58398e+00  3.08539e-01  1.38971e+01
       H -4.21405e+00  2.36178e+00  1.11909e+01
       O -8.31100e+00  9.46530e+00  1.30900e+01
       H -8.38975e+00  7.71750e+00  1.35022e+01
       H -8.26225e+00  9.73910e+00  1.11482e+01
       O -4.51873e+00  2.58372e+00  7.66354e+00
       H -6.11007e+00  3.53011e+00  7.12581e+00
       H -2.82322e+00  3.49058e+00  7.07071e+00
       O  8.23319e+00  9.86976e+00  7.56758e+00
       H  6.80926e+00  1.11343e+01  7.17702e+00
       H -7.32821e+00  1.09918e+01  7.18419e+00
       O  8.11051e+00  5.22554e+00  6.15283e+00
       H  8.37008e+00  5.42327e+00  4.49422e+00
       H  8.47561e+00  6.92124e+00  6.75555e+00
       O -4.59189e+00  1.26302e+01  6.15310e+00
       H -4.77167e+00  1.26271e+01  4.34924e+00
       H -4.24125e+00  1.43211e+01  6.92033e+00
       O  3.04261e-01 -9.86884e+00 -1.32014e+01
       H -1.22842e+00 -1.08572e+01 -1.35338e+01
       H  1.89264e+00 -1.09143e+01 -1.32423e+01
       O  4.63514e+00 -2.61482e+00 -1.31194e+01
       H  3.19900e+00 -3.83935e+00 -1.32806e+01
       H  6.26862e+00 -3.69170e+00 -1.35410e+01
       O  4.60673e+00 -1.26672e+01 -7.18631e-01
       H  4.43763e+00 -1.45869e+01 -2.76837e-01
       H  4.30085e+00 -1.25355e+01 -2.30730e+00
       O  3.33095e-01 -5.22015e+00 -7.67939e-01
       H  5.34964e-01 -7.11284e+00 -1.16658e-01
       H -3.56925e-02 -5.14563e+00 -2.66370e+00
       O  3.91031e+00 -1.20373e+01 -6.15566e+00
       H  2.50671e+00 -1.08536e+01 -6.22183e+00
       H  5.37499e+00 -1.15225e+01 -6.98261e+00
       O -2.99711e-01 -4.77150e+00 -6.18532e+00
       H -1.64584e+00 -3.72100e+00 -6.57733e+00
       H  1.24647e+00 -3.82177e+00 -6.59039e+00
       O -3.23412e-01 -9.54877e+00 -7.62918e+00
       H -9.82074e-02 -9.91607e+00 -9.67500e+00
       H -3.59905e-01 -7.93115e+00 -7.26366e+00
       O  3.95130e+00 -2.15800e+00 -7.78256e+00
       H  4.50028e+00 -2.53647e+00 -9.44667e+00
       H  4.27635e+00 -4.12827e-01 -7.18182e+00
       O  2.84420e-01 -9.98725e+00  7.26145e-01
       H -1.37886e+00 -1.10993e+01  2.30124e-01
       H  1.77878e+00 -1.06009e+01  3.98308e-01
       O  4.50245e+00 -2.60821e+00  6.69011e-01
       H  2.95540e+00 -3.84421e+00  2.56040e-01
       H  5.95172e+00 -3.46133e+00  2.99660e-01
       O  4.65361e+00 -1.25011e+01  1.31119e+01
       H  4.51381e+00 -1.42233e+01  1.39027e+01
       H  4.53461e+00 -1.27821e+01  1.13521e+01
       O  3.20694e-01 -5.20614e+00  1.30863e+01
       H  3.86636e-01 -7.11241e+00  1.35015e+01
       H  2.38877e-01 -4.93186e+00  1.13370e+01
       O  3.94308e+00 -1.21177e+01  7.53425e+00
       H  2.75276e+00 -1.08539e+01  7.38136e+00
       H  5.20462e+00 -1.09063e+01  7.28228e+00
       O -2.85281e-01 -4.84657e+00  7.41724e+00
       H -1.83739e+00 -3.74525e+00  6.96588e+00
       H  1.25461e+00 -3.71998e+00  7.00149e+00
       O -2.79474e-01 -9.49047e+00  6.19170e+00
       H -4.23451e-01 -9.61935e+00  4.29552e+00
       H -6.64375e-02 -7.68006e+00  6.71553e+00
       O  3.97808e+00 -2.09135e+00  6.08456e+00
       H  4.45189e+00 -1.76746e+00  4.11086e+00
       H  4.00451e+00 -4.41744e-01  6.81577e+00
       O  3.20234e-01  4.73567e+00 -1.30785e+01
       H -1.44593e+00  3.71538e+00 -1.37432e+01
       H  1.75572e+00  3.62739e+00 -1.35398e+01
       O  4.47963e+00  1.20262e+01 -1.31570e+01
       H  3.05236e+00  1.09028e+01 -1.39959e+01
       H  6.39583e+00  1.15650e+01 -1.39069e+01
       O  4.49302e+00  2.15955e+00 -8.17293e-01
       H  4.21003e+00  2.87087e-01 -3.58647e-01
       H  3.87568e+00  2.26989e+00 -2.58220e+00
       O  2.55673e-01  9.47722e+00 -7.57043e-01
       H  6.24845e-01  7.47726e+00 -2.46960e-01
       H  2.36341e-01  9.70304e+00 -2.49622e+00
       O  4.02031e+00  2.59113e+00 -6.21676e+00
       H  2.51000e+00  4.03397e+00 -6.69950e+00
       H  5.39262e+00  3.87157e+00 -6.19508e+00
       O -2.55170e-01  9.91123e+00 -6.30791e+00
       H -1.78664e+00  1.09053e+01 -6.95441e+00
       H  1.34752e+00  1.07683e+01 -7.04727e+00
       O -2.89777e-01  5.28579e+00 -7.69124e+00
       H -1.73678e-01  5.65564e+00 -9.34803e+00
       H -2.33537e-01  7.04695e+00 -7.28263e+00
       O  4.04867e+00  1.26206e+01 -7.72181e+00
       H  4.18480e+00  1.24248e+01 -9.38761e+00
       H  4.09289e+00  1.46123e+01 -7.40920e+00
       O  2.54780e-01  4.68479e+00  6.40125e-01
       H -1.04715e+00  3.60000e+00  2.59698e-02
       H  1.66729e+00  3.65910e+00  3.99845e-01
       O  4.42349e+00  1.20674e+01  6.64317e-01
       H  3.10284e+00  1.09377e+01  1.63157e-01
       H  6.01622e+00  1.13704e+01  4.51794e-01
       O  4.50580e+00  2.29436e+00  1.31243e+01
       H  4.57268e+00  4.23322e-01  1.40000e+01
       H  4.39239e+00  1.98140e+00  1.12571e+01
       O  2.75637e-01  9.41262e+00  1.29045e+01
       H  2.37333e-01  7.69919e+00  1.36490e+01
       H -2.74607e-01  9.05666e+00  1.10824e+01
       O  3.92622e+00  2.65860e+00  7.55151e+00
       H  2.25535e+00  3.43919e+00  7.19550e+00
       H  5.52149e+00  3.57176e+00  7.12060e+00
       O -2.04932e-01  9.87560e+00  7.66359e+00
       H -1.70783e+00  1.09798e+01  7.39312e+00
       H  9.52680e-01  1.08707e+01  6.70702e+00
       O -3.22241e-01  5.21670e+00  6.19099e+00
       H -4.44888e-01  5.32429e+00  4.14925e+00
       H  1.06984e-01  7.37434e+00  6.71110e+00
       O  3.99206e+00  1.26146e+01  6.03021e+00
       H  3.71152e+00  1.27053e+01  4.11779e+00
       H  3.71784e+00  1.44693e+01  6.58973e+00
192
# CELL(abcABC):   16.99620    29.43815    27.67315    90.00000    90.00000    90.00000  Step:          30  Bead:       1 positions{atomic_unit}  cell{atomic_unit}
       O -8.12085e+00 -1.00394e+01 -1.31443e+01
       H  7.24876e+00 -1.07184e+01 -1.35951e+01
       H -6.85445e+00 -1.12482e+01 -1.35526e+01
       O -3.83721e+00 -2.56002e+00 -1.30655e+01
       H -5.01831e+00 -3.68356e+00 -1.33261e+01
       H -2.19755e+00 -3.56843e+00 -1.32309e+01
       O -3.82455e+00 -1.26555e+01 -8.74331e-01
       H -3.85088e+00 -1.46422e+01 -4.58897e-01
       H -4.27909e+00 -1.22408e+01 -2.38754e+00
       O -8.29161e+00 -5.16567e+00 -8.07797e-01
       H -8.25346e+00 -7.14150e+00 -3.82780e-01
       H -8.50458e+00 -4.96891e+00 -2.64160e+00
       O -4.50339e+00 -1.21249e+01 -6.24734e+00
       H -5.95214e+00 -1.10250e+01 -6.81920e+00
       H -2.80880e+00 -1.12927e+01 -6.77822e+00
       O  8.23607e+00 -4.74522e+00 -6.32467e+00
       H  6.95838e+00 -3.50498e+00 -6.55675e+00
       H -7.33913e+00 -3.67924e+00 -7.02361e+00
       O  8.23290e+00 -9.49504e+00 -7.81606e+00
       H  8.18904e+00 -9.09767e+00 -9.64367e+00
       H  7.90659e+00 -7.66285e+00 -6.87277e+00
       O -4.53386e+00 -2.11773e+00 -7.71874e+00
       H -4.45484e+00 -1.95865e+00 -9.80298e+00
       H -4.40394e+00 -1.94701e-01 -6.84517e+00
       O -8.33378e+00 -9.90940e+00  5.83183e-01
       H  7.12638e+00 -1.11359e+01  8.53874e-02
       H -6.46319e+00 -1.07769e+01  2.68474e-01
       O -4.04990e+00 -2.65123e+00  8.45700e-01
       H -5.39351e+00 -3.68294e+00  2.53479e-01
       H -2.65263e+00 -3.88952e+00  6.98260e-01
       O -3.94570e+00 -1.24252e+01  1.30463e+01
       H -4.06100e+00 -1.41392e+01  1.37641e+01
       H -4.30175e+00 -1.25955e+01  1.11207e+01
       O -8.25472e+00 -5.15150e+00  1.29671e+01
       H -7.90839e+00 -6.99177e+00  1.33517e+01