192
# CELL(abcABC):   16.99620    29.43815    27.67315    90.00000    90.00000    90.00000  Step:           0  Bead:      25 positions{atomic_unit}  cell{atomic_unit}
       O -8.21943e+00 -9.93714e+00 -1.31733e+01
       H  7.30975e+00 -1.09659e+01 -1.36333e+01
       H -6.70309e+00 -1.09427e+01 -1.35003e+01
       O -3.97045e+00 -2.57760e+00 -1.31733e+01
       H -5.43740e+00 -3.60640e+00 -1.36335e+01
       H -2.45410e+00 -3.58307e+00 -1.35002e+01
       O -3.95479e+00 -1.25494e+01 -7.82537e-01
       H -3.95303e+00 -1.43463e+01 -2.27998e-01
       H -4.14654e+00 -1.25640e+01 -2.59980e+00
       O -8.20381e+00 -5.18980e+00 -7.82573e-01
       H -8.20206e+00 -6.98662e+00 -2.28079e-01
       H -8.39554e+00 -5.20430e+00 -2.59985e+00
       O -4.52774e+00 -1.21415e+01 -6.25501e+00
       H -6.04401e+00 -1.11359e+01 -6.58198e+00
       H -3.06070e+00 -1.11128e+01 -6.71509e+00
       O  8.21948e+00 -4.78197e+00 -6.25503e+00
       H  6.70316e+00 -3.77646e+00 -6.58191e+00
       H -7.30970e+00 -3.75321e+00 -6.71514e+00
       O  8.20373e+00 -9.52922e+00 -7.70081e+00
       H  8.39566e+00 -9.51468e+00 -9.51806e+00
       H  8.20220e+00 -7.73240e+00 -7.14624e+00
       O -4.54345e+00 -2.16975e+00 -7.70084e+00
       H -4.35162e+00 -2.15526e+00 -9.51812e+00
       H -4.54503e+00 -3.72917e-01 -7.14634e+00
       O -8.21943e+00 -9.93697e+00  6.63195e-01
       H  7.30977e+00 -1.09657e+01  2.03202e-01
       H -6.70308e+00 -1.09425e+01  3.36227e-01
       O -3.97044e+00 -2.57760e+00  6.63173e-01
       H -5.43747e+00 -3.60635e+00  2.03069e-01
       H -2.45410e+00 -3.58312e+00  3.36346e-01
       O -3.95472e+00 -1.25494e+01  1.30540e+01
       H -3.95309e+00 -1.43462e+01  1.36086e+01
       H -4.14653e+00 -1.25640e+01  1.12368e+01
       O -8.20380e+00 -5.18990e+00  1.30541e+01
       H -8.20202e+00 -6.98672e+00  1.36085e+01
       H -8.39553e+00 -5.20434e+00  1.12368e+01
       O -4.52771e+00 -1.21415e+01  7.58159e+00
       H -6.04402e+00 -1.11360e+01  7.25460e+00
       H -3.06070e+00 -1.11128e+01  7.12152e+00
       O  8.21944e+00 -4.78191e+00  7.58149e+00
       H  6.70312e+00 -3.77633e+00  7.25453e+00
       H -7.30974e+00 -3.75322e+00  7.12139e+00
       O  8.20378e+00 -9.52926e+00  6.13582e+00
       H  8.39564e+00 -9.51474e+00  4.31856e+00
       H  8.20221e+00 -7.73246e+00  6.69037e+00
       O -4.54344e+00 -2.16971e+00  6.13568e+00
       H -4.35161e+00 -2.15522e+00  4.31840e+00
       H -4.54506e+00 -3.72896e-01  6.69017e+00
       O -8.21947e+00  4.78210e+00 -1.31734e+01
       H  7.30974e+00  3.75335e+00 -1.36334e+01
       H -6.70314e+00  3.77651e+00 -1.35002e+01
       O -3.97046e+00  1.21415e+01 -1.31733e+01
       H -5.43745e+00  1.11127e+01 -1.36334e+01
       H -2.45410e+00  1.11360e+01 -1.35002e+01
       O -3.95479e+00  2.16971e+00 -7.82462e-01
       H -3.95303e+00  3.72884e-01 -2.27933e-01
       H -4.14646e+00  2.15509e+00 -2.59975e+00
       O -8.20376e+00  9.52923e+00 -7.82499e-01
       H -8.20200e+00  7.73238e+00 -2.27998e-01
       H -8.39546e+00  9.51472e+00 -2.59977e+00
       O -4.52774e+00  2.57749e+00 -6.25512e+00
       H -6.04400e+00  3.58312e+00 -6.58197e+00
       H -3.06066e+00  3.60618e+00 -6.71512e+00
       O  8.21949e+00  9.93715e+00 -6.25509e+00
       H  6.70318e+00  1.09426e+01 -6.58202e+00
       H -7.30970e+00  1.09659e+01 -6.71526e+00
       O  8.20366e+00  5.18988e+00 -7.70077e+00
       H  8.39552e+00  5.20437e+00 -9.51803e+00
       H  8.20217e+00  6.98669e+00 -7.14625e+00
       O -4.54337e+00  1.25494e+01 -7.70088e+00
       H -4.35159e+00  1.25639e+01 -9.51817e+00
       H -4.54500e+00  1.43462e+01 -7.14634e+00
       O -8.21952e+00  4.78190e+00  6.63226e-01
       H  7.30971e+00  3.75313e+00  2.03107e-01
       H -6.70317e+00  3.77635e+00  3.36440e-01
       O -3.97040e+00  1.21415e+01  6.63326e-01
       H -5.43738e+00  1.11127e+01  2.03185e-01
       H -2.45407e+00  1.11360e+01  3.36426e-01
       O -3.95476e+00  2.16964e+00  1.30541e+01
       H -3.95303e+00  3.72832e-01  1.36087e+01
       H -4.14651e+00  2.15510e+00  1.12369e+01
       O -8.20373e+00  9.52937e+00  1.30540e+01
       H -8.20206e+00  7.73252e+00  1.36085e+01
       H -8.39548e+00  9.51483e+00  1.12368e+01
       O -4.52770e+00  2.57756e+00  7.58140e+00
       H -6.04399e+00  3.58315e+00  7.25450e+00
       H -3.06066e+00  3.60630e+00  7.12138e+00
       O  8.21951e+00  9.93714e+00  7.58157e+00
       H  6.70319e+00  1.09427e+01  7.25463e+00
       H -7.30968e+00  1.09658e+01  7.12140e+00
       O  8.20369e+00  5.18993e+00  6.13578e+00
       H  8.39547e+00  5.20441e+00  4.31850e+00
       H  8.20212e+00  6.98674e+00  6.69030e+00
       O -4.54348e+00  1.25494e+01  6.13570e+00
       H -4.35158e+00  1.25639e+01  4.31845e+00
       H -4.54503e+00  1.43462e+01  6.69025e+00
       O  2.78573e-01 -9.93717e+00 -1.31734e+01
       H -1.18842e+00 -1.09659e+01 -1.36336e+01
       H  1.79493e+00 -1.09427e+01 -1.35002e+01
       O  4.52772e+00 -2.57751e+00 -1.31733e+01
       H  3.06068e+00 -3.60627e+00 -1.36334e+01
       H  6.04403e+00 -3.58305e+00 -1.35003e+01
       O  4.54334e+00 -1.25494e+01 -7.82465e-01
       H  4.54513e+00 -1.43463e+01 -2.27989e-01
       H  4.35168e+00 -1.25640e+01 -2.59974e+00
       O  2.94294e-01 -5.18980e+00 -7.82487e-01
       H  2.96032e-01 -6.98663e+00 -2.28053e-01
       H  1.02602e-01 -5.20427e+00 -2.59977e+00
       O  3.97042e+00 -1.21415e+01 -6.25517e+00
       H  2.45414e+00 -1.11359e+01 -6.58198e+00
       H  5.43747e+00 -1.11128e+01 -6.71526e+00
       O -2.78672e-01 -4.78194e+00 -6.25508e+00
       H -1.79498e+00 -3.77636e+00 -6.58199e+00
       H  1.18837e+00 -3.75320e+00 -6.71514e+00
       O -2.94511e-01 -9.52920e+00 -7.70081e+00
       H -1.02600e-01 -9.51466e+00 -9.51806e+00
       H -2.96005e-01 -7.73240e+00 -7.14625e+00
       O  3.95462e+00 -2.16972e+00 -7.70080e+00
       H  4.14654e+00 -2.15521e+00 -9.51804e+00
       H  3.95318e+00 -3.72879e-01 -7.14628e+00
       O  2.78541e-01 -9.93701e+00  6.63104e-01
       H -1.18842e+00 -1.09658e+01  2.03011e-01
       H  1.79493e+00 -1.09425e+01  3.36333e-01
       O  4.52773e+00 -2.57757e+00  6.63187e-01
       H  3.06068e+00 -3.60633e+00  2.03125e-01
       H  6.04402e+00 -3.58308e+00  3.36357e-01
       O  4.54332e+00 -1.25494e+01  1.30541e+01
       H  4.54518e+00 -1.43462e+01  1.36086e+01
       H  4.35169e+00 -1.25640e+01  1.12368e+01
       O  2.94281e-01 -5.18991e+00  1.30541e+01
       H  2.95995e-01 -6.98675e+00  1.36085e+01
       H  1.02570e-01 -5.20435e+00  1.12368e+01
       O  3.97044e+00 -1.21415e+01  7.58145e+00
       H  2.45413e+00 -1.11360e+01  7.25466e+00
       H  5.43745e+00 -1.11128e+01  7.12135e+00
       O -2.78601e-01 -4.78191e+00  7.58148e+00
       H -1.79495e+00 -3.77634e+00  7.25458e+00
       H  1.18839e+00 -3.75323e+00  7.12138e+00
       O -2.94501e-01 -9.52922e+00  6.13582e+00
       H -1.02637e-01 -9.51466e+00  4.31854e+00
       H -2.96013e-01 -7.73241e+00  6.69035e+00
       O  3.95462e+00 -2.16967e+00  6.13570e+00
       H  4.14656e+00 -2.15516e+00  4.31844e+00
       H  3.95315e+00 -3.72836e-01  6.69024e+00
       O  2.78636e-01  4.78206e+00 -1.31735e+01
       H -1.18832e+00  3.75329e+00 -1.36335e+01
       H  1.79499e+00  3.77651e+00 -1.35003e+01
       O  4.52773e+00  1.21415e+01 -1.31733e+01
       H  3.06066e+00  1.11127e+01 -1.36334e+01
       H  6.04403e+00  1.11360e+01 -1.35003e+01
       O  4.54332e+00  2.16970e+00 -7.82499e-01
       H  4.54510e+00  3.72872e-01 -2.27973e-01
       H  4.35161e+00  2.15513e+00 -2.59979e+00
       O  2.94188e-01  9.52923e+00 -7.82517e-01
       H  2.95976e-01  7.73239e+00 -2.28033e-01
       H  1.02486e-01  9.51470e+00 -2.59980e+00
       O  3.97041e+00  2.57752e+00 -6.25508e+00
       H  2.45414e+00  3.58307e+00 -6.58188e+00
       H  5.43747e+00  3.60626e+00 -6.71516e+00
       O -2.78677e-01  9.93714e+00 -6.25506e+00
       H -1.79497e+00  1.09427e+01 -6.58203e+00
       H  1.18838e+00  1.09659e+01 -6.71517e+00
       O -2.94451e-01  5.18990e+00 -7.70074e+00
       H -1.02475e-01  5.20442e+00 -9.51799e+00
       H -2.95971e-01  6.98671e+00 -7.14623e+00
       O  3.95453e+00  1.25494e+01 -7.70088e+00
       H  4.14650e+00  1.25638e+01 -9.51813e+00
       H  3.95314e+00  1.43462e+01 -7.14638e+00
       O  2.78666e-01  4.78190e+00  6.63181e-01
       H -1.18838e+00  3.75314e+00  2.03219e-01
       H  1.79499e+00  3.77637e+00  3.36305e-01
       O  4.52768e+00  1.21415e+01  6.63233e-01
       H  3.06065e+00  1.11127e+01  2.03130e-01
       H  6.04402e+00  1.11359e+01  3.36318e-01
       O  4.54337e+00  2.16963e+00  1.30541e+01
       H  4.54515e+00  3.72778e-01  1.36085e+01
       H  4.35165e+00  2.15511e+00  1.12368e+01
       O  2.94139e-01  9.52935e+00  1.30540e+01
       H  2.96028e-01  7.73252e+00  1.36085e+01
       H  1.02508e-01  9.51480e+00  1.12368e+01
       O  3.97044e+00  2.57752e+00  7.58146e+00
       H  2.45409e+00  3.58312e+00  7.25468e+00
       H  5.43745e+00  3.60627e+00  7.12136e+00
       O -2.78642e-01  9.93713e+00  7.58156e+00
       H -1.79498e+00  1.09426e+01  7.25459e+00
       H  1.18834e+00  1.09658e+01  7.12145e+00
       O -2.94462e-01  5.18993e+00  6.13575e+00
       H -1.02485e-01  5.20444e+00  4.31854e+00
       H -2.95928e-01  6.98677e+00  6.69031e+00
       O  3.95461e+00  1.25493e+01  6.13580e+00
       H  4.14651e+00  1.25638e+01  4.31854e+00
       H  3.95313e+00  1.43462e+01  6.69028e+00
192
# CELL(abcABC):   16.99620    29.43815    27.67315    90.00000    90.00000    90.00000  Step:          10  Bead:      25 positions{atomic_unit}  cell{atomic_unit}
       O -8.25434e+00 -9.93837e+00 -1.31278e+01
       H  7.27511e+00 -1.08525e+01 -1.35566e+01
       H -6.61826e+00 -1.07601e+01 -1.35258e+01
       O -3.94341e+00 -2.57313e+00 -1.31658e+01
       H -5.44220e+00 -3.74195e+00 -1.35281e+01
       H -2.45110e+00 -3.54587e+00 -1.33093e+01
       O -3.99663e+00 -1.25358e+01 -8.45616e-01
       H -3.96940e+00 -1.42915e+01 -2.71740e-01
       H -4.17128e+00 -1.25948e+01 -2.47527e+00
       O -8.24209e+00 -5.22233e+00 -7.86624e-01
       H -8.16573e+00 -7.01868e+00 -1.77063e-01
       H -8.38646e+00 -5.16426e+00 -2.52845e+00
       O -4.54533e+00 -1.21877e+01 -6.22266e+00
       H -5.86721e+00 -1.12735e+01 -6.57239e+00
       H -3.04215e+00 -1.12191e+01 -6.70991e+00
       O  8.25655e+00 -4.80854e+00 -6.25159e+00
       H  6.75373e+00 -3.82727e+00 -6.47579e+00
       H -7.27036e+00 -3.83747e+00 -6.72609e+00
       O  8.24286e+00 -9.48426e+00 -7.73175e+00
       H  8.45407e+00 -9.58732e+00 -9.53657e+00
       H  8.14115e+00 -7.66479e+00 -7.14794e+00
       O -4.54481e+00 -2.21322e+00 -7.69548e+00
       H -4.32446e+00 -2.21657e+00 -9.38904e+00
       H -4.48754e+00 -3.50088e-01 -7.04256e+00
       O -8.22734e+00 -9.91396e+00  6.78606e-01
       H  7.31321e+00 -1.10218e+01  2.28409e-01
       H -6.75955e+00 -1.09185e+01  3.16895e-01
       O -3.95885e+00 -2.61396e+00  7.01336e-01
       H -5.29385e+00 -3.55296e+00  3.10244e-01
       H -2.43104e+00 -3.55350e+00  3.55771e-01
       O -4.00547e+00 -1.25673e+01  1.30448e+01
       H -3.98157e+00 -1.42419e+01  1.37793e+01
       H -4.15525e+00 -1.25416e+01  1.12024e+01
       O -8.17405e+00 -5.17618e+00  1.30794e+01
       H -8.14560e+00 -7.12365e+00  1.36224e+01
       H -8.49855e+00 -5.05496e+00  1.10890e+01
       O -4.53494e+00 -1.21580e+01  7.57533e+00
       H -6.10009e+00 -1.11311e+01  7.31267e+00
       H -3.06042e+00 -1.10767e+01  7.02884e+00
       O  8.23778e+00 -4.80056e+00  7.60158e+00
       H  6.74467e+00 -3.75896e+00  7.37899e+00
       H -7.21529e+00 -3.71485e+00  7.23284e+00
       O  8.20074e+00 -9.55442e+00  6.18618e+00
       H  8.33960e+00 -9.53069e+00  4.37573e+00
       H  8.30339e+00 -7.81486e+00  6.67352e+00
       O -4.56113e+00 -2.16942e+00  6.16756e+00
       H -4.48163e+00 -2.18584e+00  4.34908e+00
       H -4.64076e+00 -4.46498e-01  6.75994e+00
       O -8.21704e+00  4.75270e+00 -1.31824e+01
       H  7.26849e+00  3.81300e+00 -1.35406e+01
       H -6.75877e+00  3.76988e+00 -1.34526e+01
       O -3.97912e+00  1.21511e+01 -1.31811e+01
       H -5.39090e+00  1.09603e+01 -1.35176e+01
       H -2.31859e+00  1.11493e+01 -1.34241e+01
       O -3.96175e+00  2.17731e+00 -8.15004e-01
       H -4.03374e+00  4.07533e-01 -4.43302e-01
       H -4.05354e+00  2.08315e+00 -2.65448e+00
       O -8.20916e+00  9.50380e+00 -7.47076e-01
       H -8.12408e+00  7.87087e+00 -2.26321e-01
       H -8.45937e+00  9.62252e+00 -2.52353e+00
       O -4.52341e+00  2.63445e+00 -6.26633e+00
       H -5.93536e+00  3.57242e+00 -6.56472e+00
       H -3.09202e+00  3.74413e+00 -6.69333e+00
       O  8.20016e+00  9.92398e+00 -6.26312e+00
       H  6.62884e+00  1.09514e+01 -6.63878e+00
       H -7.48919e+00  1.09012e+01 -6.72490e+00
       O  8.18364e+00  5.22547e+00 -7.70705e+00
       H  8.48229e+00  5.14117e+00 -9.34114e+00
       H  8.19937e+00  6.96522e+00 -7.06257e+00
       O -4.59049e+00  1.25466e+01 -7.72537e+00
       H -4.25638e+00  1.25810e+01 -9.51518e+00
       H -4.55955e+00  1.44478e+01 -7.16629e+00
       O -8.18634e+00  4.77894e+00  6.77664e-01
       H  7.42651e+00  3.88733e+00  1.83512e-01
       H -6.44772e+00  3.75971e+00  3.32207e-01
       O -4.01438e+00  1.21618e+01  6.70229e-01
       H -5.41114e+00  1.12808e+01  3.03904e-01
       H -2.47872e+00  1.11048e+01  3.07935e-01
       O -3.93364e+00  2.16181e+00  1.30985e+01
       H -3.90785e+00  3.19114e-01  1.36198e+01
       H -4.22951e+00  2.26798e+00  1.12592e+01
       O -8.22718e+00  9.50180e+00  1.30724e+01
       H -8.20233e+00  7.70023e+00  1.33796e+01
       H -8.38926e+00  9.52817e+00  1.13204e+01
       O -4.54282e+00  2.52820e+00  7.59169e+00
       H -6.00136e+00  3.54465e+00  7.40105e+00
       H -3.07856e+00  3.70595e+00  7.28657e+00
       O  8.20235e+00  9.96516e+00  7.59132e+00
       H  6.72356e+00  1.10676e+01  7.27734e+00
       H -7.37201e+00  1.09077e+01  7.15962e+00
       O  8.19552e+00  5.17747e+00  6.09938e+00
       H  8.51512e+00  5.23989e+00  4.24172e+00
       H  8.24383e+00  7.04374e+00  6.68634e+00
       O -4.52352e+00  1.25470e+01  6.14599e+00
       H -4.19001e+00  1.24570e+01  4.27896e+00
       H -4.52221e+00  1.43968e+01  6.49873e+00
       O  2.72180e-01 -9.88251e+00 -1.31888e+01
       H -1.20571e+00 -1.09179e+01 -1.35214e+01
       H  1.89145e+00 -1.09370e+01 -1.35744e+01
       O  4.54788e+00 -2.59356e+00 -1.32193e+01
       H  3.35581e+00 -3.49891e+00 -1.37895e+01
       H  5.87575e+00 -3.64951e+00 -1.34195e+01
       O  4.57336e+00 -1.25717e+01 -7.33689e-01
       H  4.60575e+00 -1.44826e+01 -2.64372e-01
       H  4.30988e+00 -1.24741e+01 -2.65389e+00
       O  3.13332e-01 -5.19111e+00 -7.35152e-01
       H  5.49053e-01 -6.94711e+00 -3.90526e-01
       H -1.38115e-01 -5.07109e+00 -2.56809e+00
       O  3.99909e+00 -1.21401e+01 -6.23688e+00
       H  2.55872e+00 -1.13549e+01 -6.64452e+00
       H  5.43042e+00 -1.11513e+01 -6.64958e+00
       O -3.31676e-01 -4.73983e+00 -6.25208e+00
       H -2.07406e+00 -3.90967e+00 -6.57886e+00
       H  1.21495e+00 -3.75728e+00 -6.60428e+00
       O -2.64161e-01 -9.51693e+00 -7.70646e+00
       H -2.40024e-01 -9.48908e+00 -9.55372e+00
       H -2.15358e-01 -7.75560e+00 -7.07120e+00
       O  3.94399e+00 -2.12721e+00 -7.73613e+00
       H  4.21768e+00 -1.99092e+00 -9.44444e+00
       H  4.13788e+00 -3.13481e-01 -7.16907e+00
       O  2.87447e-01 -9.88404e+00  5.95227e-01
       H -1.32800e+00 -1.09669e+01  3.23681e-01
       H  1.83024e+00 -1.09554e+01  4.24140e-01
       O  4.59786e+00 -2.56558e+00  6.18999e-01
       H  3.16944e+00 -3.58646e+00  1.37022e-01
       H  6.04189e+00 -3.72445e+00  4.08372e-01
       O  4.53445e+00 -1.25242e+01  1.30399e+01
       H  4.55516e+00 -1.42353e+01  1.35676e+01
       H  4.51312e+00 -1.24815e+01  1.13585e+01
       O  2.99787e-01 -5.19851e+00  1.30854e+01
       H  3.00296e-01 -7.11225e+00  1.36137e+01
       H  4.97566e-02 -5.33227e+00  1.13115e+01
       O  3.93191e+00 -1.21312e+01  7.58043e+00
       H  2.53745e+00 -1.11610e+01  7.27593e+00
       H  5.48027e+00 -1.10889e+01  7.22718e+00
       O -2.89909e-01 -4.82175e+00  7.57960e+00
       H -1.80873e+00 -3.94349e+00  7.13896e+00
       H  1.15050e+00 -3.63523e+00  7.29083e+00
       O -2.77837e-01 -9.53587e+00  6.14942e+00
       H -3.01132e-01 -9.62085e+00  4.21256e+00
       H -2.08009e-01 -7.61410e+00  6.65948e+00
       O  3.91246e+00 -2.16750e+00  6.13717e+00
       H  4.17734e+00 -2.29684e+00  4.28106e+00
       H  3.94581e+00 -3.92689e-01  6.70805e+00
       O  2.74691e-01  4.78034e+00 -1.31465e+01
       H -1.18581e+00  3.83505e+00 -1.35374e+01
       H  1.88123e+00  3.72014e+00 -1.35572e+01
       O  4.51506e+00  1.21651e+01 -1.31691e+01
       H  3.10652e+00  1.11828e+01 -1.35849e+01
       H  6.06862e+00  1.12703e+01 -1.34714e+01
       O  4.55826e+00  2.15321e+00 -7.69310e-01
       H  4.39230e+00  2.43729e-01 -2.85652e-01
       H  4.39824e+00  2.15742e+00 -2.55677e+00
       O  2.84955e-01  9.55999e+00 -7.47016e-01
       H  3.85290e-01  7.62591e+00 -1.40609e-01
       H  1.15379e-01  9.56585e+00 -2.79528e+00
       O  3.93868e+00  2.58350e+00 -6.26822e+00
       H  2.41971e+00  3.58807e+00 -6.56766e+00
       H  5.56682e+00  3.63513e+00 -6.69803e+00
       O -2.49471e-01  9.97544e+00 -6.23788e+00
       H -1.90012e+00  1.09848e+01 -6.61913e+00
       H  1.00539e+00  1.09817e+01 -6.59939e+00
       O -2.98981e-01  5.16003e+00 -7.70074e+00
       H  2.04881e-02  5.20602e+00 -9.44659e+00
       H -2.59241e-01  6.94209e+00 -7.11431e+00
       O  3.96921e+00  1.25906e+01 -7.72853e+00
       H  4.22445e+00  1.25944e+01 -9.39928e+00
       H  3.81201e+00  1.43112e+01 -7.16426e+00
       O  2.67203e-01  4.78077e+00  6.48028e-01
       H -1.04730e+00  3.61220e+00  1.87663e-01
       H  1.76652e+00  3.73982e+00  2.77173e-01
       O  4.52059e+00  1.21185e+01  6.80058e-01
       H  3.11388e+00  1.11078e+01  1.53663e-01
       H  6.09322e+00  1.10508e+01  3.95055e-01
       O  4.55196e+00  2.20735e+00  1.30538e+01
       H  4.58769e+00  4.51727e-01  1.35512e+01
       H  4.38068e+00  2.37863e+00  1.12205e+01
       O  2.56285e-01  9.55463e+00  1.30702e+01
       H  4.83821e-01  7.88999e+00  1.37666e+01
       H  1.61593e-01  9.56799e+00  1.12547e+01
       O  3.98557e+00  2.53548e+00  7.60891e+00
       H  2.73595e+00  3.48493e+00  7.26035e+00
       H  5.37978e+00  3.80016e+00  7.00095e+00
       O -2.87975e-01  9.92749e+00  7.54484e+00
       H -1.69253e+00  1.10904e+01  7.44306e+00
       H  1.21233e+00  1.08888e+01  7.07545e+00
       O -3.00703e-01  5.20156e+00  6.12974e+00
       H -1.84875e-01  5.25480e+00  4.45257e+00
       H -1.44065e-01  7.09743e+00  6.74241e+00
       O  3.95639e+00  1.25549e+01  6.11014e+00
       H  4.04243e+00  1.24301e+01  4.31031e+00
       H  3.96219e+00  1.42736e+01  6.83414e+00
192
# CELL(abcABC):   16.99620    29.43815    27.67315    90.00000    90.00000    90.00000  Step:          20  Bead:      25 positions{atomic_unit}  cell{atomic_unit}
       O -8.26218e+00 -9.96499e+00 -1.30996e+01
       H  7.12485e+00 -1.09664e+01 -1.34821e+01
       H -6.78597e+00 -1.06648e+01 -1.35583e+01
       O -3.89000e+00 -2.58422e+00 -1.31448e+01
       H -5.26870e+00 -3.75603e+00 -1.35493e+01
       H -2.58156e+00 -3.43731e+00 -1.33633e+01
       O -3.94740e+00 -1.25416e+01 -8.67890e-01
       H -3.91083e+00 -1.43085e+01 -4.04930e-01
       H -4.22863e+00 -1.27172e+01 -2.45186e+00
       O -8.22383e+00 -5.24443e+00 -7.68984e-01
       H -8.13991e+00 -7.09397e+00 -2.59201e-01
       H -8.40835e+00 -5.14720e+00 -2.51141e+00
       O -4.57124e+00 -1.21687e+01 -6.24067e+00
       H -5.84049e+00 -1.11555e+01 -6.60929e+00
       H -3.14809e+00 -1.13385e+01 -6.72132e+00
       O  8.28421e+00 -4.80735e+00 -6.28266e+00
       H  6.72248e+00 -3.99280e+00 -6.49363e+00
       H -7.42427e+00 -3.68275e+00 -6.78371e+00
       O  8.20841e+00 -9.48684e+00 -7.67672e+00
       H  8.57627e+00 -9.55262e+00 -9.55364e+00
       H  7.99794e+00 -7.74568e+00 -7.02877e+00
       O -4.52910e+00 -2.20929e+00 -7.70212e+00
       H -4.20887e+00 -2.29383e+00 -9.36570e+00
       H -4.69352e+00 -4.12511e-01 -6.95906e+00
       O -8.23792e+00 -9.88904e+00  6.68160e-01
       H  7.42311e+00 -1.11103e+01  2.11995e-01
       H -6.70270e+00 -1.08913e+01  2.07184e-01
       O -3.90143e+00 -2.59961e+00  7.09317e-01
       H -5.23259e+00 -3.68659e+00  2.38949e-01
       H -2.49441e+00 -3.62618e+00  4.12402e-01
       O -4.03117e+00 -1.25560e+01  1.30590e+01
       H -4.17621e+00 -1.43841e+01  1.37223e+01
       H -4.15603e+00 -1.25620e+01  1.10720e+01
       O -8.19446e+00 -5.23773e+00  1.31019e+01
       H -8.23178e+00 -7.30354e+00  1.35504e+01
       H -8.40604e+00 -4.96859e+00  1.11685e+01
       O -4.52790e+00 -1.21324e+01  7.60483e+00
       H -6.18986e+00 -1.10536e+01  7.10541e+00
       H -3.05144e+00 -1.10769e+01  7.03936e+00
       O  8.21797e+00 -4.81669e+00  7.59733e+00
       H  6.75705e+00 -3.69503e+00  7.20881e+00
       H -7.14513e+00 -3.54962e+00  7.13080e+00
       O  8.23860e+00 -9.54840e+00  6.18769e+00
       H  8.34557e+00 -9.58619e+00  4.31663e+00
       H  8.47128e+00 -7.83861e+00  6.66127e+00
       O -4.54512e+00 -2.15470e+00  6.17088e+00
       H -4.26388e+00 -2.17708e+00  4.18458e+00
       H -4.67389e+00 -3.89463e-01  6.75505e+00
       O -8.26097e+00  4.75672e+00 -1.31905e+01
       H  7.13570e+00  3.73183e+00 -1.34087e+01
       H -6.78899e+00  3.75816e+00 -1.36303e+01
       O -3.98923e+00  1.21290e+01 -1.31500e+01
       H -5.46067e+00  1.10178e+01 -1.34842e+01
       H -2.36909e+00  1.11993e+01 -1.33620e+01
       O -3.95676e+00  2.15812e+00 -8.82219e-01
       H -4.07435e+00  2.51783e-01 -3.65424e-01
       H -3.89416e+00  2.19322e+00 -2.79429e+00
       O -8.18239e+00  9.49689e+00 -7.80408e-01
       H -8.02417e+00  7.91378e+00 -2.96027e-01
       H -8.56206e+00  9.53058e+00 -2.65150e+00
       O -4.50807e+00  2.60885e+00 -6.27081e+00
       H -6.06472e+00  3.60481e+00 -6.51208e+00
       H -3.11671e+00  3.67797e+00 -6.74696e+00
       O  8.16463e+00  9.87331e+00 -6.23627e+00
       H  6.54643e+00  1.07415e+01 -6.62308e+00
       H -7.51946e+00  1.08836e+01 -6.74822e+00
       O  8.18108e+00  5.24901e+00 -7.70040e+00
       H  8.64016e+00  5.18917e+00 -9.37160e+00
       H  8.24187e+00  7.00541e+00 -6.87809e+00
       O -4.57678e+00  1.25689e+01 -7.74093e+00
       H -4.28735e+00  1.25628e+01 -9.44423e+00
       H -4.65732e+00  1.42711e+01 -7.15968e+00
       O -8.17004e+00  4.74312e+00  6.62386e-01
       H  7.41301e+00  4.01315e+00  2.80789e-01
       H -6.66345e+00  3.76528e+00  2.49140e-01
       O -4.03560e+00  1.21471e+01  6.76447e-01
       H -5.57050e+00  1.11404e+01  3.16391e-01
       H -2.71477e+00  1.11298e+01  3.74311e-01
       O -3.92431e+00  2.20752e+00  1.30982e+01
       H -3.75537e+00  2.49393e-01  1.37750e+01
       H -4.24617e+00  2.14399e+00  1.13974e+01
       O -8.25409e+00  9.51337e+00  1.30853e+01
       H -8.28591e+00  7.69361e+00  1.34575e+01
       H -8.56554e+00  9.60628e+00  1.11552e+01
       O -4.57494e+00  2.52914e+00  7.57018e+00
       H -5.98984e+00  3.35828e+00  7.58178e+00
       H -3.04913e+00  3.73179e+00  7.21311e+00
       O  8.22121e+00  9.98952e+00  7.56808e+00
       H  6.68242e+00  1.12404e+01  7.36480e+00
       H -7.41402e+00  1.09175e+01  6.91527e+00
       O  8.20403e+00  5.17696e+00  6.11488e+00
       H  8.43868e+00  5.22280e+00  4.11747e+00
       H  8.06998e+00  7.02022e+00  6.74944e+00
       O -4.53047e+00  1.25514e+01  6.16839e+00
       H -4.25382e+00  1.24287e+01  4.08754e+00
       H -4.48740e+00  1.43599e+01  6.53009e+00
       O  2.93101e-01 -9.88123e+00 -1.32514e+01
       H -1.23096e+00 -1.08811e+01 -1.33464e+01
       H  1.89489e+00 -1.08696e+01 -1.35914e+01
       O  4.56117e+00 -2.59312e+00 -1.32256e+01
       H  3.35152e+00 -3.52921e+00 -1.37606e+01
       H  5.86654e+00 -3.69877e+00 -1.34790e+01
       O  4.54029e+00 -1.25875e+01 -7.57125e-01
       H  4.66389e+00 -1.45026e+01 -2.12370e-01
       H  4.15038e+00 -1.23255e+01 -2.69906e+00
       O  3.13508e-01 -5.20227e+00 -7.09205e-01
       H  5.39174e-01 -6.99544e+00 -4.40202e-01
       H -1.08210e-01 -5.04653e+00 -2.41799e+00
       O  3.98542e+00 -1.21329e+01 -6.22498e+00
       H  2.53335e+00 -1.14793e+01 -6.59248e+00
       H  5.43529e+00 -1.10985e+01 -6.62023e+00
       O -3.21585e-01 -4.74385e+00 -6.27548e+00
       H -2.15888e+00 -4.01562e+00 -6.64313e+00
       H  1.20290e+00 -3.60228e+00 -6.71345e+00
       O -2.44215e-01 -9.47621e+00 -7.70015e+00
       H -2.30539e-01 -9.22691e+00 -9.68208e+00
       H -1.49386e-01 -7.62967e+00 -7.19227e+00
       O  4.00837e+00 -2.14843e+00 -7.72220e+00
       H  4.06565e+00 -2.14367e+00 -9.59635e+00
       H  4.35920e+00 -2.92499e-01 -7.20890e+00
       O  3.02121e-01 -9.87878e+00  5.77164e-01
       H -1.22834e+00 -1.07633e+01  2.79914e-01
       H  1.65827e+00 -1.09631e+01  4.29351e-01
       O  4.56991e+00 -2.57642e+00  5.92661e-01
       H  3.17657e+00 -3.66301e+00  3.06442e-01
       H  6.15977e+00 -3.88037e+00  3.44427e-01
       O  4.55337e+00 -1.25273e+01  1.30614e+01
       H  4.65545e+00 -1.43336e+01  1.34784e+01
       H  4.53722e+00 -1.24318e+01  1.13846e+01
       O  3.05179e-01 -5.21375e+00  1.31230e+01
       H  2.61597e-01 -7.13382e+00  1.36144e+01
       H  8.88088e-02 -5.31518e+00  1.13586e+01
       O  3.92979e+00 -1.21502e+01  7.57435e+00
       H  2.52730e+00 -1.10868e+01  7.29225e+00
       H  5.46984e+00 -1.11132e+01  7.33281e+00
       O -3.14259e-01 -4.80236e+00  7.59263e+00
       H -1.79617e+00 -3.73021e+00  7.10720e+00
       H  1.12567e+00 -3.75089e+00  7.32821e+00
       O -2.92001e-01 -9.57562e+00  6.16029e+00
       H -2.79082e-01 -9.62446e+00  4.30800e+00
       H -1.00599e-01 -7.55700e+00  6.59075e+00
       O  3.87152e+00 -2.17481e+00  6.14903e+00
       H  4.28180e+00 -2.40226e+00  4.35429e+00
       H  3.77767e+00 -3.08159e-01  6.60803e+00
       O  2.83225e-01  4.79474e+00 -1.31059e+01
       H -1.09449e+00  3.94423e+00 -1.35174e+01
       H  1.77344e+00  3.72284e+00 -1.34522e+01
       O  4.49527e+00  1.21740e+01 -1.31995e+01
       H  3.11087e+00  1.11670e+01 -1.35994e+01
       H  6.05536e+00  1.12193e+01 -1.33744e+01
       O  4.53872e+00  2.11699e+00 -7.34835e-01
       H  4.29972e+00  2.97839e-01 -4.16086e-01
       H  4.56864e+00  2.21140e+00 -2.58987e+00
       O  2.71341e-01  9.57819e+00 -7.53066e-01
       H  3.01636e-01  7.69893e+00 -8.81127e-02
       H -4.31455e-02  9.50231e+00 -2.81936e+00
       O  3.89919e+00  2.54705e+00 -6.24288e+00
       H  2.35728e+00  3.57740e+00 -6.48708e+00
       H  5.62380e+00  3.60885e+00 -6.56640e+00
       O -2.05887e-01  9.97718e+00 -6.19590e+00
       H -1.89023e+00  1.10706e+01 -6.68295e+00
       H  9.13582e-01  1.11494e+01 -6.51784e+00
       O -2.71925e-01  5.14318e+00 -7.69472e+00
       H  5.79872e-02  5.21965e+00 -9.56204e+00
       H -2.81800e-01  6.77956e+00 -7.26832e+00
       O  3.96172e+00  1.26096e+01 -7.69770e+00
       H  4.13163e+00  1.25536e+01 -9.33346e+00
       H  3.83577e+00  1.42596e+01 -7.16871e+00
       O  2.46293e-01  4.81977e+00  6.62562e-01
       H -1.01286e+00  3.68926e+00  1.36903e-01
       H  1.92682e+00  3.68246e+00  3.71960e-01
       O  4.55457e+00  1.21346e+01  6.85191e-01
       H  3.07133e+00  1.11514e+01  6.87668e-02
       H  6.08937e+00  1.11038e+01  2.61786e-01
       O  4.57499e+00  2.18260e+00  1.30539e+01
       H  4.61767e+00  4.96952e-01  1.34650e+01
       H  4.37775e+00  2.43086e+00  1.12438e+01
       O  2.56624e-01  9.54518e+00  1.30631e+01
       H  4.99597e-01  7.95077e+00  1.38483e+01
       H  1.42818e-01  9.46723e+00  1.12427e+01
       O  3.97576e+00  2.53208e+00  7.64647e+00
       H  2.60543e+00  3.53043e+00  7.30333e+00
       H  5.39785e+00  3.80321e+00  7.13160e+00
       O -2.85405e-01  9.92591e+00  7.53194e+00
       H -1.74387e+00  1.10689e+01  7.47613e+00
       H  1.11397e+00  1.08341e+01  7.09850e+00
       O -3.08389e-01  5.24066e+00  6.13722e+00
       H -3.04825e-01  5.31130e+00  4.52370e+00
       H -6.98467e-03  7.02738e+00  6.77767e+00
       O  3.93883e+00  1.25898e+01  6.07971e+00
       H  4.12732e+00  1.25909e+01  4.20900e+00
       H  3.69321e+00  1.42058e+01  6.78621e+00
192
# CELL(abcABC):   16.99620    29.43815    27.67315    90.00000    90.00000    90.00000  Step:          30  Bead:      25 positions{atomic_unit}  cell{atomic_unit}
       O -8.23102e+00 -9.94943e+00 -1.31573e+01
       H  6.96844e+00 -1.09836e+01 -1.33877e+01
       H -6.73972e+00 -1.07284e+01 -1.35722e+01
       O -3.91371e+00 -2.58547e+00 -1.31222e+01
       H -5.40554e+00 -3.75607e+00 -1.34685e+01
       H -2.47127e+00 -3.55043e+00 -1.34750e+01
       O -3.92602e+00 -1.25440e+01 -8.75766e-01
       H -3.96739e+00 -1.44726e+01 -6.48876e-01
       H -4.21062e+00 -1.25949e+01 -2.56319e+00
       O -8.24093e+00 -5.25171e+00 -7.44248e-01
       H -7.95464e+00 -6.98442e+00 -3.03658e-01
       H -8.31547e+00 -5.26241e+00 -2.53572e+00
       O -4.56766e+00 -1.21532e+01 -6.24919e+00
       H -5.87970e+00 -1.09878e+01 -6.67713e+00
       H -3.10083e+00 -1.14516e+01 -6.60195e+00
       O  8.27261e+00 -4.75578e+00 -6.32538e+00
       H  6.73759e+00 -4.02982e+00 -6.46109e+00
       H -7.45501e+00 -3.65807e+00 -6.69037e+00
       O  8.21847e+00 -9.47818e+00 -7.66739e+00
       H  8.49230e+00 -9.48701e+00 -9.51378e+00
       H  7.86169e+00 -7.68227e+00 -6.97170e+00
       O -4.53644e+00 -2.23777e+00 -7.68053e+00
       H -4.31989e+00 -2.29155e+00 -9.42962e+00
       H -4.76931e+00 -5.31723e-01 -6.70708e+00
       O -8.22876e+00 -9.87222e+00  6.27982e-01
       H  7.48505e+00 -1.10675e+01  1.02690e-01
       H -6.68717e+00 -1.09751e+01  7.32739e-02
       O -3.90801e+00 -2.62405e+00  7.13634e-01
       H -5.19867e+00 -3.74527e+00  3.25874e-01
       H -2.64036e+00 -3.80043e+00  4.52611e-01
       O -4.00343e+00 -1.25339e+01  1.30482e+01
       H -4.29656e+00 -1.44880e+01  1.34146e+01
       H -3.89852e+00 -1.25604e+01  1.11704e+01
       O -8.21289e+00 -5.19954e+00  1.31430e+01
       H -8.19221e+00 -7.27640e+00  1.34988e+01