192
# CELL(abcABC):   16.99620    29.43815    27.67315    90.00000    90.00000    90.00000  Step:           0  Bead:       1 velocities{atomic_unit}  cell{atomic_unit}
       O -9.89803e-04 -1.28566e-03 -3.74395e-04
       H -3.08449e-03 -1.90156e-03  1.03914e-03
       H  1.22280e-03 -5.52009e-03 -2.82295e-03
       O  8.60968e-05  8.86695e-04  1.08256e-03
       H -1.20948e-03 -4.94754e-03 -1.90373e-03
       H  1.34895e-03 -2.72651e-03 -5.28290e-03
       O  1.25256e-03 -6.58417e-04  1.16356e-03
       H -4.15047e-03  1.09613e-03 -6.99229e-04
       H  5.48971e-03  4.60266e-05  1.02744e-03
       O -8.62492e-04 -3.36872e-06  7.77521e-04
       H -9.06253e-04  3.32418e-03  3.51400e-03
       H -2.62909e-03  5.63257e-03  2.14993e-03
       O  2.74697e-04  6.07047e-04  5.97886e-04
       H -7.57676e-04 -1.88546e-03  5.68886e-03
       H  2.69304e-03 -1.61418e-03  8.54795e-03
       O -7.41360e-04  9.62025e-05  1.06671e-03
       H -2.57648e-03 -5.04144e-03  2.54200e-03
       H  1.53392e-03  1.89982e-03  4.01252e-04
       O -2.24499e-03  2.53178e-04  1.01106e-03
       H  7.36360e-04  3.14287e-03 -1.91343e-03
       H  3.21423e-03 -2.96122e-03 -3.84377e-03
       O  2.36554e-04  2.09373e-04 -1.26293e-03
       H  1.71811e-04 -3.43912e-03  1.48515e-04
       H  1.80102e-03 -8.21522e-03 -4.28829e-03
       O -6.17617e-04  5.87181e-04 -8.14188e-04
       H -1.63709e-03 -2.93685e-04 -1.17471e-03
       H  7.10268e-04  3.21921e-03 -6.30103e-03
       O  2.55928e-04  9.28458e-04  1.26067e-03
       H  7.24338e-03 -2.23272e-03  2.60506e-03
       H  1.92455e-03 -1.57798e-03  2.01551e-03
       O  6.80554e-04  1.44196e-03 -4.93378e-04
       H -6.64351e-03  4.53365e-04 -7.00011e-03
       H  2.38492e-03 -5.69761e-03 -5.08947e-03
       O -1.46024e-03 -6.50413e-04 -1.03319e-03
       H  5.83030e-04 -4.40494e-03  3.12201e-03
       H  7.58007e-04  4.89970e-04  1.47738e-04
       O  4.01923e-04 -4.11347e-04 -6.40382e-04
       H -1.84316e-03  6.55020e-04 -7.63946e-04
       H -8.94779e-04  1.48055e-03 -4.52073e-05
       O  9.59169e-04  1.25272e-03  2.35787e-04
       H  1.24147e-03  4.30809e-05  1.04098e-03
       H  2.60702e-03  1.99241e-03 -2.30752e-03
       O -4.22669e-04  4.43890e-04 -3.96913e-04
       H -2.44275e-03 -1.02047e-02  4.61488e-03
       H  1.70478e-03 -3.61735e-03 -4.26392e-03
       O  7.28641e-04 -1.08407e-03  5.43243e-04
       H  1.00999e-03 -2.57186e-03 -2.79604e-03
       H  4.06559e-03 -2.97568e-03 -4.73732e-03
       O  5.72534e-04  6.94222e-04 -2.01852e-03
       H  9.25618e-05 -7.67967e-04  7.64579e-04
       H -3.12996e-03  3.41444e-03  2.09732e-03
       O  9.60438e-04  1.27269e-04 -2.41634e-05
       H -5.01947e-03  3.38838e-03  3.55204e-06
       H -4.11939e-03  1.23388e-03  5.00251e-04
       O -3.14387e-04  7.13494e-04 -1.69487e-03
       H -2.35196e-03  3.47671e-03 -6.22366e-03
       H  2.10003e-03 -2.13565e-03  3.79090e-03
       O -8.08476e-04  1.83058e-04  5.22944e-04
       H  7.45810e-03 -1.48842e-03  6.14823e-04
       H  2.29362e-03 -2.54290e-03 -2.27939e-04
       O  9.06175e-05  1.67339e-04 -8.36501e-04
       H -1.60731e-03 -5.84105e-04  5.22074e-04
       H -5.03822e-03 -3.22524e-03  6.99063e-05
       O  2.12866e-04  1.41956e-03  2.43840e-04
       H  2.81680e-04  2.59620e-03 -1.52574e-03
       H  6.16228e-04 -4.23096e-03 -3.72319e-04
       O  1.96235e-03  8.42867e-04  7.20016e-04
       H  3.19781e-04  3.96573e-03 -1.91382e-04
       H -4.15136e-03  1.60597e-03  5.09126e-03
       O  7.28075e-04  1.28602e-03 -1.29141e-03
       H -2.41101e-03 -1.12465e-03 -7.74732e-04
       H  1.72585e-03 -4.45189e-03 -4.08658e-03
       O  1.74303e-03 -9.43532e-04  1.23606e-03
       H  8.27546e-05 -4.79074e-04 -1.62251e-03
       H  2.44164e-03 -2.23192e-03 -3.43097e-04
       O  1.07768e-03  1.38360e-03 -7.16100e-04
       H -2.96558e-03 -6.83254e-03  4.21606e-03
       H -3.03068e-03 -1.14840e-03  8.27352e-03
       O -8.95993e-04 -8.82494e-04 -2.34570e-04
       H  8.17091e-03 -6.78596e-03 -5.79466e-04
       H  1.58101e-03  8.50491e-04 -1.37402e-03
       O  2.49295e-04  1.75456e-03 -1.03613e-05
       H  1.13051e-03 -1.40943e-03  7.76252e-05
       H  8.45843e-04  2.75770e-03 -2.81257e-03
       O  4.45292e-04 -4.23081e-05  6.88918e-04
       H  1.56692e-03  5.06817e-04  4.22855e-03
       H -5.28513e-03  7.07038e-04  1.36101e-03
       O  3.01207e-04 -6.82271e-05 -2.47407e-04
       H -4.68354e-03 -3.57204e-03 -8.35399e-04
       H -3.94993e-04 -5.30115e-04 -4.89611e-04
       O -8.83402e-04 -2.25571e-04  4.02281e-04
       H  1.36068e-03  1.87496e-04 -4.35218e-03
       H -5.53988e-03 -1.09298e-03 -4.91936e-03
       O -3.21124e-04  2.61313e-04 -8.54557e-05
       H -4.36369e-03  4.63623e-03  2.77681e-03
       H -1.97726e-03 -6.82677e-03  1.20271e-03
       O  1.49019e-03 -9.28994e-04 -2.84565e-06
       H  1.81833e-03  8.77391e-03  3.31535e-03
       H -2.73650e-04  9.17618e-03  1.20684e-04
       O -1.51325e-04  1.02933e-03  1.32770e-03
       H -5.86402e-03 -5.07762e-03 -4.58505e-03
       H -5.85614e-03 -5.43141e-03  9.78806e-04
       O -4.69800e-04 -1.62040e-04 -2.76636e-04
       H  5.27569e-03  1.16519e-03  4.41178e-03
       H -2.90788e-03  1.63315e-03  4.71249e-03
       O -7.66978e-04  5.04065e-04  1.16341e-03
       H  3.60483e-04  1.89943e-03 -2.51070e-03
       H -1.55368e-03 -1.20758e-03 -3.72252e-03
       O  1.10725e-03  2.62814e-04  9.13118e-04
       H -4.68534e-03  1.64781e-03  7.27747e-03
       H  4.69170e-03 -3.53260e-03 -2.49586e-03
       O -7.82545e-04 -7.14073e-04  1.02184e-03
       H -6.88020e-03  1.59460e-03 -1.04137e-03
       H -6.14521e-03 -3.89673e-03 -1.66174e-03
       O -1.20401e-04 -1.63691e-03  6.54706e-04
       H -5.83930e-03 -7.66045e-03 -1.90981e-03
       H -3.69422e-03  9.30193e-04 -2.14973e-04
       O  1.00654e-03 -1.06844e-03 -8.82062e-04
       H -2.34443e-03  1.31488e-03  6.24678e-04
       H -2.20353e-03  3.78776e-03  5.53529e-03
       O -9.40743e-04  1.34661e-03  1.19663e-03
       H  4.35369e-03 -2.17544e-03 -7.90055e-04
       H  3.51997e-03  2.45059e-03 -3.52662e-03
       O -6.06158e-04  1.52408e-03  1.13182e-03
       H -3.20225e-03  1.47326e-03  8.89356e-03
       H -4.29285e-03  7.00591e-04  2.02017e-03
       O  1.19824e-03  6.64887e-04 -1.60626e-04
       H -1.22492e-03 -4.75489e-03  2.25271e-04
       H  3.45657e-03 -4.07364e-03  3.06968e-03
       O -1.06616e-04  7.19486e-04  6.11597e-04
       H  1.83546e-03 -3.78877e-03  1.72355e-03
       H  2.61486e-03  6.19244e-04 -4.54029e-03
       O -2.17665e-03 -2.41029e-04 -1.21981e-03
       H  5.20516e-03  2.68343e-03  1.15681e-03
       H -6.33570e-03  2.40290e-03 -1.04048e-04
       O  2.56921e-04 -8.90183e-04 -3.63076e-05
       H -1.55997e-03 -2.27011e-04  1.83199e-03
       H  4.88200e-03  1.86079e-03  1.70567e-03
       O -1.25193e-03  3.38434e-04 -9.18837e-04
       H -5.43140e-03  7.69494e-03  1.32427e-04
       H  5.03387e-03  5.25345e-03 -4.75650e-03
       O  5.84831e-04  3.08146e-04 -9.06226e-04
       H  2.06989e-03 -3.11532e-04 -4.45716e-03
       H -8.19707e-04  4.99217e-04 -4.53817e-03
       O -1.07364e-03 -1.33043e-03  2.02973e-03
       H  1.81642e-03  1.10217e-03  3.83036e-03
       H  5.30632e-03  4.66552e-03 -1.16993e-03
       O -1.86189e-04 -5.60528e-04 -7.04263e-04
       H -2.36594e-03 -3.79183e-03 -6.49397e-03
       H  2.13266e-03  1.59450e-03  1.62084e-04
       O  1.77568e-03 -9.82703e-04 -1.25923e-04
       H -2.26403e-03 -3.85884e-03  2.48460e-03
       H -4.02653e-03  3.48878e-03  6.08638e-04
       O -1.39112e-03  5.91591e-04  7.78741e-04
       H -4.14240e-04  4.48042e-03  3.51442e-03
       H  5.71522e-03  2.18277e-04  4.51508e-03
       O -1.51158e-04 -3.68057e-04 -2.79508e-04
       H  1.72016e-03  3.19488e-03  3.54549e-03
       H  6.48426e-04 -4.19338e-03 -3.76974e-03
       O  8.86090e-04 -6.04045e-04 -2.22051e-04
       H  2.07299e-03 -1.10514e-03 -3.96052e-03
       H  9.95362e-04  4.73512e-03 -3.00049e-03
       O  8.87489e-04 -3.82650e-04  2.59268e-04
       H  5.30008e-04  3.66835e-03 -9.39035e-03
       H  9.27700e-04 -2.76671e-03  1.95420e-03
       O  2.07916e-04  9.18395e-04 -1.13100e-03
       H -2.02106e-04  1.28589e-04  1.43427e-03
       H  2.39989e-03  2.00973e-03 -1.84561e-03
       O -8.37755e-05 -9.26090e-04 -2.98574e-04
       H  1.59599e-03 -2.72654e-03 -6.83931e-04
       H  3.60021e-03  1.62558e-03  1.54446e-03
       O  7.77604e-04  7.21996e-04  7.83779e-04
       H -1.00043e-03  3.35955e-03  4.21159e-03
       H -2.83824e-03 -1.67067e-03 -2.63603e-03
       O  1.11126e-03  7.04563e-04  6.69791e-04
       H -1.50262e-03  1.71414e-03  7.02545e-03
       H  2.06498e-03  4.30831e-03  7.22103e-03
       O -7.45006e-04 -8.94756e-04 -4.04928e-04
       H -1.26776e-03 -1.20939e-03  6.63804e-03
       H  5.57037e-03 -3.96858e-03 -2.05666e-03
       O -1.27429e-03  1.02753e-03 -5.73892e-04
       H  9.09770e-04 -2.01175e-03  5.17540e-03
       H -9.64980e-04 -5.20482e-03 -1.94655e-03
       O  4.11272e-04 -4.36254e-05  2.64118e-03
       H -3.27891e-03 -5.63208e-03 -2.66103e-03
       H  3.87894e-03  4.91667e-03 -3.69389e-03
       O -1.33514e-03  7.38227e-04 -5.21937e-04
       H  4.05717e-03  7.17013e-03  5.91229e-04
       H -3.03307e-04 -7.12109e-03 -5.08894e-03
       O -6.49064e-04 -5.65237e-05 -2.06293e-03
       H -2.39436e-03  1.75436e-03  4.74875e-03
       H -1.50704e-03  4.44065e-03 -1.23525e-03
192
# CELL(abcABC):   16.99620    29.43815    27.67315    90.00000    90.00000    90.00000  Step:          10  Bead:       1 velocities{atomic_unit}  cell{atomic_unit}
       O  6.56417e-05 -3.44504e-04 -2.29183e-04
       H -5.76993e-03  1.51422e-03 -3.77546e-03
       H -2.50623e-03 -4.50162e-03 -2.87978e-03
       O -4.80754e-04  2.38348e-03  2.01120e-04
       H  3.53871e-03  4.59539e-03  3.99282e-03
       H  1.20166e-03 -6.77068e-03  3.11774e-03
       O  5.53514e-04 -6.38777e-04  1.06725e-05
       H -3.17709e-03 -4.09893e-03 -1.97942e-03
       H  1.07606e-03  2.38279e-03  5.22460e-03
       O  3.96719e-04  4.93176e-04 -1.75947e-04
       H -5.55207e-03  5.77742e-03 -9.63608e-03
       H  4.61035e-05  3.32385e-03  2.76000e-03
       O -2.42586e-04  7.74720e-04  6.19243e-04
       H  2.10142e-03 -7.02322e-04 -2.88123e-03
       H -1.47263e-03 -7.95706e-03  2.47023e-03
       O  9.53155e-04 -4.17782e-04 -9.22227e-04
       H -2.62344e-03  9.67802e-03 -3.01055e-03
       H  5.57341e-03 -6.37159e-03  1.47584e-03
       O -9.31565e-05 -2.07782e-03  1.09097e-04
       H -3.25142e-04 -3.86398e-03  1.62909e-03
       H -5.76627e-03 -2.84035e-03 -2.15908e-03
       O  1.15445e-03 -2.51347e-04  7.30096e-04
       H  2.04465e-03 -1.99506e-03 -2.00204e-03
       H -2.43106e-03  2.50860e-03  5.19045e-03
       O -1.45468e-03 -2.50811e-04 -7.30455e-06
       H  7.13352e-04 -4.24921e-03 -5.93684e-03
       H -2.37914e-03  1.11060e-03  2.32585e-03
       O -4.15642e-04 -1.48714e-03  1.41232e-03
       H  1.60975e-03  2.49787e-03  3.18856e-03
       H -1.57457e-03 -9.12120e-04  1.09518e-02
       O  9.97179e-04  7.66313e-05  4.01415e-04
       H  3.82497e-04  1.61885e-03 -3.52574e-03
       H -2.53250e-03 -4.78690e-03  1.07093e-03
       O -1.34641e-03  1.34186e-03  5.37525e-04
       H  6.15308e-03  4.49472e-03 -7.57059e-04
       H  4.37757e-03 -8.50381e-04 -5.17792e-03
       O  8.97936e-04  2.26381e-03 -6.59628e-04
       H -8.69058e-04 -6.87910e-03  5.05124e-04
       H -9.81276e-04  3.45633e-05  2.74365e-03
       O  1.94011e-03  3.89544e-04  4.11972e-04
       H  3.95923e-03  9.04581e-03 -2.74599e-03
       H  2.50123e-03  1.02450e-03 -5.14581e-03
       O -5.11918e-04  4.66367e-05  8.43712e-04
       H -4.09071e-03  4.06696e-03 -2.16084e-03
       H -8.08866e-04  3.26910e-03  4.62400e-03
       O -1.68848e-04  2.64321e-04 -5.63509e-04
       H -4.45275e-03 -1.59703e-03  2.59163e-03
       H -5.48813e-03  6.36349e-03  2.87843e-04
       O  1.58708e-03  7.35841e-04 -9.52965e-04
       H  2.44605e-03 -3.68377e-03  1.98200e-03
       H -3.60724e-04 -5.53081e-04  3.57375e-03
       O -4.27984e-04 -1.74013e-04  2.97353e-04
       H -1.27080e-03  2.03454e-03  3.52815e-03
       H -1.96729e-03  3.19587e-03  7.81198e-04
       O  5.77140e-04 -1.19004e-03 -1.04371e-03
       H -2.38966e-03 -2.00859e-03 -1.03074e-02
       H  4.24220e-04 -7.71365e-03 -1.05630e-03
       O  4.20490e-04  3.23312e-04 -1.51975e-03
       H -3.93982e-03  2.00387e-03 -3.02265e-03
       H  3.33437e-04 -5.16936e-03  2.88047e-04
       O  1.01531e-03  1.09698e-03  1.24737e-03
       H  1.96660e-03 -1.28673e-03  2.66083e-03
       H  2.44030e-03 -7.37699e-03 -5.09538e-03
       O -6.44788e-04  1.45056e-03 -3.27216e-04
       H -2.08753e-03 -8.51858e-04 -1.03356e-03
       H  3.08827e-03  2.70389e-03  2.95816e-03
       O  1.19565e-03  1.07574e-03 -4.85253e-04
       H -1.52448e-05  2.83455e-03 -3.57713e-03
       H  3.16606e-03 -9.77362e-04  1.07754e-03
       O  6.12613e-04 -1.17609e-03  1.20238e-04
       H  4.98468e-04  3.57615e-03  1.14172e-03
       H  4.40328e-03  1.92962e-03 -2.94312e-03
       O -2.22086e-03  1.59324e-03  3.32673e-04
       H  1.79481e-03 -4.25237e-04  4.56801e-04
       H -2.68447e-03  1.82845e-03  5.50961e-03
       O  5.23914e-04  3.89672e-04  5.10696e-04
       H -1.55340e-03  1.10487e-03 -2.80976e-03
       H -3.00940e-03 -1.14023e-03 -3.51238e-04
       O -1.83575e-04  1.06916e-04 -1.62358e-04
       H  3.38085e-03 -5.62759e-03  4.03900e-03
       H -3.86560e-03  3.03176e-03  2.98637e-03
       O -2.42882e-04 -9.16681e-04 -7.72830e-04
       H  1.36655e-03 -9.16427e-05 -2.98488e-03
       H  2.80372e-03 -1.08395e-03 -2.22290e-03
       O -9.40930e-04 -3.14775e-04 -3.42262e-04
       H  3.64640e-03 -3.64179e-03 -3.46949e-04
       H -2.02772e-04 -9.76248e-04 -2.46608e-03
       O  1.65701e-03 -1.09144e-03 -5.50832e-04
       H -8.27760e-03  7.32712e-04  4.92024e-04
       H  2.65332e-04 -1.59237e-03  2.71438e-03
       O  9.55219e-04  1.27668e-03 -6.05883e-04
       H  2.56663e-03  3.88668e-05 -6.23454e-03
       H -4.48407e-04 -1.37316e-03  7.18379e-04
       O -1.24766e-03  1.09459e-06 -3.64897e-04
       H -1.06839e-03  8.77814e-04 -3.76525e-03
       H  7.80787e-04  3.58115e-03  2.46175e-03
       O -4.20948e-04 -7.66504e-05 -3.89948e-05
       H -2.70058e-03 -3.26569e-05  4.52824e-03
       H -2.57428e-03 -1.34613e-03  5.76199e-03
       O  1.24705e-03 -1.27018e-04 -6.43760e-04
       H  3.90603e-04  2.81535e-03 -1.86389e-03
       H  3.35004e-03 -1.29432e-03  3.04629e-03
       O  9.51951e-05 -8.20326e-04  9.98143e-04
       H  2.77813e-03 -9.68152e-03 -3.76726e-03
       H -7.65044e-03 -4.87869e-03  5.60740e-04
       O  6.37366e-04 -2.10423e-04 -9.00114e-04
       H  4.03234e-03  2.03060e-03 -2.92445e-03
       H -4.30535e-03 -1.22946e-03 -4.62182e-03
       O -2.61773e-04 -1.52829e-04  1.74894e-05
       H -1.14911e-03  3.91333e-03 -2.63954e-03
       H  1.76300e-03 -2.27345e-03  1.70246e-03
       O  2.33557e-04 -7.14204e-04  1.70088e-03
       H  1.22755e-04  5.54465e-03  6.43772e-03
       H  1.40139e-03 -1.05030e-03  1.03170e-03
       O -5.39686e-04 -1.14650e-03  1.03226e-03
       H  4.70287e-03  2.18656e-03  2.18555e-04
       H  1.50532e-05  8.44070e-03 -6.06084e-04
       O  9.32414e-04  2.66795e-04 -6.04976e-04
       H  1.05587e-03  4.29286e-03  1.50150e-03
       H  3.69894e-03 -8.57826e-03 -1.77502e-03
       O -2.65608e-04 -4.05358e-05  1.15021e-03
       H -4.28261e-03 -6.37633e-03  2.51466e-03
       H -1.77537e-04  8.31688e-03 -1.40770e-03
       O  9.87035e-04  8.10722e-04  8.53095e-04
       H -1.02958e-03 -2.98117e-03  1.70054e-03
       H -2.23958e-03  1.55940e-03  3.86931e-04
       O  2.55134e-04  1.19461e-03  2.19127e-03
       H -8.48496e-05 -1.52725e-03  1.42612e-03
       H -8.26649e-04 -4.18002e-04  3.82066e-03
       O  3.33309e-04  1.05255e-04 -1.69733e-04
       H  4.24870e-03 -9.22094e-04 -6.17719e-03
       H  6.73711e-04  6.81619e-04 -6.03095e-03
       O -5.47329e-04  5.41943e-04 -7.87086e-04
       H -7.55080e-04 -1.28420e-04  5.01229e-03
       H -9.09256e-03  3.68516e-03  2.89292e-03
       O -8.07147e-04 -2.27708e-04 -1.00200e-03
       H  7.84860e-03  1.58139e-03  1.07424e-03
       H  3.67328e-03 -1.92288e-03 -2.37484e-03
       O  9.44428e-04 -1.26527e-04 -8.94823e-04
       H -4.76814e-03 -4.27549e-03  8.40489e-03
       H  4.53383e-03  4.78684e-04  4.29884e-03
       O -9.10387e-04  3.24011e-04  1.02148e-04
       H  4.55958e-03 -8.11026e-05 -1.66620e-03
       H -1.74451e-03 -2.28659e-05 -3.31619e-03
       O  1.47927e-04 -1.86975e-03  1.03643e-03
       H  3.75138e-03  4.71750e-03 -3.78236e-03
       H -1.16582e-02  1.17984e-03 -4.54242e-04
       O -3.19951e-05 -2.45994e-04 -8.72414e-04
       H -8.13126e-04  5.87165e-03  5.58933e-03
       H -1.33250e-04  4.97232e-04 -2.25470e-03
       O -5.81946e-04  1.22280e-04  3.50104e-04
       H -1.80272e-03  2.14465e-03 -3.11989e-03
       H -5.84069e-03  2.30477e-03  3.96679e-05
       O -4.24269e-04 -4.76945e-05  9.25967e-04
       H  2.57159e-03 -3.33972e-03  1.47325e-03
       H  6.31099e-03  6.43538e-03 -3.30382e-03
       O  1.75671e-03 -6.94373e-04  1.86841e-04
       H  1.71985e-03  4.65480e-03 -8.11515e-03
       H -5.68620e-04 -2.35693e-04  3.37475e-03
       O -8.90448e-04 -6.91876e-04 -8.25599e-04
       H  5.08534e-04 -1.14523e-03 -1.69222e-03
       H  4.51565e-03 -3.18612e-03 -4.54123e-04
       O  2.29510e-04  5.34884e-04 -5.57842e-04
       H  2.57490e-04  3.41900e-03  9.91899e-04
       H -2.56771e-03  1.29521e-03 -4.38953e-03
       O  5.20968e-04  1.64809e-03  8.35419e-04
       H -3.15289e-04 -5.01327e-03 -1.03309e-04
       H -3.07218e-03 -4.83716e-03 -1.43974e-03
       O -1.22717e-03 -5.18688e-05 -9.25587e-04
       H  1.98165e-04  1.89883e-03  5.44752e-03
       H  3.15994e-03  8.46010e-04  5.19129e-03
       O -1.15293e-05 -1.89051e-04 -2.54210e-04
       H  8.38673e-03 -2.66292e-03  1.53668e-03
       H  4.56839e-03  1.88541e-03  2.17265e-04
       O -8.60759e-04  2.86922e-04  6.21608e-04
       H  4.34626e-03  1.55275e-03  1.48837e-03
       H -1.22795e-03  5.59895e-04 -2.56669e-03
       O -8.39091e-04 -1.34158e-03 -2.15629e-03
       H -1.30184e-03  2.79862e-03  6.83371e-04
       H -3.35261e-03  1.02282e-03  1.50709e-03
       O -5.59365e-04  5.19441e-05 -4.11256e-04
       H -1.44967e-03  1.59008e-03 -2.57271e-03
       H -9.12263e-04  2.69454e-03 -9.79781e-03
       O -3.55536e-04 -1.36480e-03  6.28638e-04
       H  7.46271e-04  3.47825e-03  6.06666e-03
       H  6.13529e-04 -4.24696e-03  1.51501e-03
       O  1.81380e-04  8.59009e-06  8.10575e-04
       H -4.73953e-03  9.55302e-04  3.25371e-03
       H -2.64313e-04  4.23751e-04 -8.56572e-04
       O -7.50951e-04  2.65635e-04 -1.44924e-03
       H -2.33170e-03 -9.45333e-05 -2.10688e-03
       H -4.36360e-04  6.90246e-04 -2.31512e-03
192
# CELL(abcABC):   16.99620    29.43815    27.67315    90.00000    90.00000    90.00000  Step:          20  Bead:       1 velocities{atomic_unit}  cell{atomic_unit}
       O  1.40050e-03  7.02730e-04 -6.70768e-04
       H  7.04253e-03  4.31349e-03  3.16575e-04
       H  5.75617e-03 -2.49618e-03 -3.95362e-03
       O  1.30763e-03  1.23992e-04  1.65211e-04
       H -2.05058e-03  4.22284e-03  1.18590e-03
       H  1.82938e-03 -2.46474e-04 -5.16386e-03
       O  1.11469e-03 -3.72687e-04  4.22981e-04
       H  4.26613e-03  5.37430e-03 -5.58468e-03
       H -3.90434e-03  5.71356e-03 -3.33027e-03
       O -6.85623e-04  3.35195e-05 -6.88368e-04
       H -2.36154e-03  4.25729e-04 -1.64084e-03
       H  4.39805e-03  1.12576e-03 -8.17104e-04
       O -1.69661e-03 -1.63199e-04  1.02138e-03
       H -1.16502e-03  5.07775e-03 -1.09903e-02
       H  4.75717e-03 -1.31982e-03  4.68289e-03
       O -1.11058e-03 -2.64886e-04  1.74058e-03
       H  7.02326e-03  5.98237e-03  1.74628e-03
       H  6.33751e-04  3.03610e-03 -6.26341e-03
       O -6.18741e-04 -9.34519e-04 -1.36502e-03
       H  3.04715e-03  1.54422e-03  2.47793e-03
       H  3.21759e-03 -5.38023e-03  5.97453e-03
       O -1.69382e-04 -6.87585e-04 -5.51221e-04
       H  4.63881e-03  3.87229e-03 -6.52781e-03
       H -1.33915e-03  7.18800e-04 -4.94901e-03
       O -1.12490e-03 -2.04456e-04 -1.59640e-03
       H -2.14674e-03 -3.40242e-03  4.43600e-03
       H  2.41197e-03  3.55673e-03 -1.45238e-03
       O -3.22879e-04  1.14294e-03  1.10768e-04
       H -8.86714e-04  2.38327e-04 -3.14380e-03
       H -2.10470e-03 -4.12371e-03 -5.02029e-04
       O -1.23424e-03  1.32988e-03 -6.43478e-04
       H -5.50603e-03 -8.43470e-03 -4.38325e-03
       H -3.41575e-04  5.66651e-03 -2.51701e-03
       O -1.11294e-03  6.64186e-04 -1.04115e-03
       H  6.64124e-03 -2.52529e-03 -9.76077e-04
       H  1.66744e-03  2.29032e-03  1.50395e-03
       O  4.72005e-06  7.26065e-04 -1.20918e-03
       H -8.75937e-04  7.71420e-04 -7.40200e-04
       H -7.06058e-03  3.42216e-03 -9.80402e-04
       O  1.79339e-03 -7.70256e-04 -7.07079e-04
       H  5.42966e-04  2.39574e-04  6.68402e-03
       H  3.03832e-03 -9.63548e-04 -6.12563e-04
       O -1.00245e-03 -2.78141e-04 -1.85661e-04
       H -3.57507e-03 -1.06386e-03 -2.40103e-03
       H -6.28683e-03  1.82273e-03 -5.17986e-03
       O -7.53836e-04  1.32100e-03 -1.35882e-04
       H -4.96471e-04 -1.54790e-05  3.16602e-03
       H -8.32546e-03  3.33983e-04 -5.04018e-03
       O  4.14656e-04  1.51598e-04 -8.44536e-05
       H  1.81861e-03  4.94173e-04  2.07014e-03
       H -2.20080e-04  5.05827e-03 -9.63854e-05
       O -1.18428e-03 -1.08622e-04  2.89512e-04
       H  8.54111e-04 -3.53087e-03 -3.73165e-03
       H -5.82737e-03 -1.87396e-03  1.94366e-03
       O -5.40470e-04  1.19437e-04  8.46800e-04
       H -5.50274e-04  2.84924e-03 -6.77028e-05
       H -3.24748e-04 -1.36783e-03  3.76226e-04
       O  1.39746e-04  1.15066e-03  1.70358e-04
       H -8.58812e-04 -5.57713e-03  2.07778e-03
       H -1.13997e-03  1.97695e-03 -2.72490e-03
       O -5.79418e-04 -1.53462e-03  1.59547e-03
       H  8.16093e-04 -8.68119e-04  8.42252e-04
       H -2.40127e-03 -2.56133e-05 -2.23942e-03
       O -9.14066e-04 -1.21636e-03 -1.20886e-03
       H -2.26165e-03 -2.40814e-05 -5.05767e-03
       H -4.57985e-03 -6.85819e-04  9.40717e-04
       O  8.99820e-04 -1.18812e-03  2.22468e-04
       H  2.18705e-03 -1.52307e-03 -1.13090e-03
       H -5.78247e-03  1.57106e-03 -8.28724e-04
       O  4.53288e-04  1.01164e-03 -4.62971e-04
       H -5.57474e-03 -3.98682e-04  2.74394e-04
       H  2.16722e-03 -2.02803e-03 -2.95710e-04
       O -4.68261e-04  1.29983e-03 -7.88113e-04
       H -5.99561e-04 -8.05751e-03  4.70852e-04
       H -4.65398e-03  6.02498e-03 -6.13580e-03
       O -2.34924e-04 -1.04300e-03 -1.01831e-04
       H  3.80578e-03  1.13405e-03  3.68476e-03
       H  3.39711e-03  2.71371e-03  4.27607e-03
       O  1.41961e-03  8.43521e-04  1.46533e-04
       H -1.59730e-03 -1.89199e-04  4.13319e-03
       H -7.43700e-04  5.86004e-04 -3.01222e-05
       O -1.27913e-03  5.37023e-04  1.24299e-03
       H -7.08005e-04 -5.35584e-03  1.32707e-03
       H  7.32013e-03  4.96433e-03  1.45196e-03
       O -7.24462e-04  5.49672e-04  1.17475e-03
       H -3.80690e-03 -3.84207e-03 -2.86887e-03
       H  2.93568e-03  7.29777e-04  4.22289e-03
       O  1.44143e-04 -7.92706e-04  1.29778e-04
       H  1.47269e-03 -3.68112e-03 -1.93614e-03
       H -1.61056e-03 -7.02870e-04 -1.39088e-03
       O -1.64724e-03  8.79054e-04  4.98881e-04
       H -8.96431e-04  7.02400e-03  5.86509e-03
       H  3.94755e-03 -2.43196e-03 -2.48782e-03
       O -1.14001e-03  8.87380e-04  4.45178e-04
       H -3.82036e-03 -1.01289e-03 -2.38315e-03
       H  3.25391e-03  1.93137e-03  1.20017e-03
       O  6.60900e-04 -2.32641e-05 -1.09659e-03
       H  3.72932e-03 -6.85476e-04 -6.53811e-04
       H  2.66120e-03 -4.59486e-04 -2.47385e-03
       O  9.27078e-04 -1.31491e-03  6.89391e-04
       H  3.97742e-03 -4.52768e-03  1.93618e-03
       H  4.38719e-03 -2.93269e-03 -1.85122e-04
       O  5.37519e-04 -3.17281e-04  6.78773e-04
       H -4.78372e-03  1.19187e-03  4.68752e-03
       H  5.42174e-03  1.86917e-04  8.30409e-03
       O  1.51654e-03 -1.17366e-03  5.64839e-04
       H  2.52532e-03 -4.14771e-03  3.39583e-03
       H  1.58148e-03  8.95649e-04  7.71529e-04
       O  9.18367e-04 -7.91134e-05  6.37391e-04
       H  2.56037e-03  2.82932e-03  3.05566e-03
       H -1.56449e-03 -3.69820e-03 -7.54307e-03
       O  4.42355e-04 -1.45185e-03  6.39049e-04
       H  3.04679e-03  3.69000e-04 -2.95584e-03
       H -5.29323e-04 -1.26333e-03  2.06442e-03
       O -5.36214e-04  9.83545e-04  4.27930e-04
       H  1.19752e-03 -2.98855e-03 -1.91671e-03
       H  5.33147e-04 -5.78986e-03 -3.48501e-03
       O -1.64658e-03 -6.56663e-04 -7.46613e-04
       H  5.62835e-03 -5.03998e-03  4.72279e-03
       H -1.64591e-03  1.98892e-03 -2.53122e-03
       O  4.89140e-04 -4.11812e-04 -7.51952e-06
       H  1.45376e-03  1.89391e-03  3.85167e-03
       H -2.73547e-03  6.73686e-03  2.18462e-03
       O -3.59712e-04  1.56841e-04 -1.60866e-03
       H -1.96267e-03 -3.74893e-04 -3.22843e-03
       H -6.14784e-04  2.97172e-03 -9.99810e-04
       O  2.25479e-03  2.81928e-05 -2.77854e-04
       H  8.79418e-03  3.42064e-04  4.09942e-03
       H -1.06071e-03 -2.12634e-03 -2.97598e-03
       O  7.24967e-04 -4.51419e-04 -2.40294e-04
       H -3.91454e-03  9.07776e-04  2.91341e-03
       H  2.44492e-03  2.06425e-03  3.74758e-03
       O -5.40402e-04  8.36930e-04  7.99120e-04
       H -5.92343e-04 -9.22381e-04 -2.31287e-03
       H -4.97244e-03  1.23616e-03  2.97330e-03
       O -8.20942e-04 -4.69989e-04 -1.43301e-03
       H -2.30355e-03  1.51559e-03 -5.11076e-03
       H -5.63201e-03 -3.89748e-03 -6.40923e-04
       O  1.43089e-03  1.01349e-03  1.25875e-03
       H  4.33043e-04  3.92412e-03 -1.30934e-03
       H -4.01001e-03  2.35692e-04  2.70089e-03
       O -1.58078e-04  6.23872e-04 -5.48522e-04
       H  3.23033e-03  4.01950e-03 -3.72964e-04
       H -1.66027e-04  2.48722e-03  4.06016e-03
       O  1.55247e-03  7.01484e-04  4.72143e-05
       H -1.25148e-03 -1.45501e-03  1.20051e-03
       H -3.02056e-03 -6.47207e-03 -1.86514e-03
       O  1.56404e-04 -1.16910e-03  7.34901e-04
       H -2.13341e-03  1.09442e-03 -4.21796e-03
       H  8.61771e-03  6.63121e-03 -5.03851e-03
       O -1.08151e-03  1.86208e-04  3.20257e-04
       H -7.85412e-03 -6.14733e-03 -4.02110e-03
       H -3.88087e-03 -3.13353e-03 -5.91219e-04
       O  5.74962e-04 -5.07443e-04 -4.15164e-04
       H  4.63922e-03 -6.57338e-03  3.29781e-03
       H  2.09979e-03 -4.25290e-04  2.85793e-03
       O  3.87340e-05  7.84732e-04  1.18869e-04
       H  3.14359e-03  4.19771e-03  1.62839e-03
       H  2.42659e-03 -1.80825e-03  5.89326e-03
       O  8.24529e-05 -6.85775e-06 -4.86732e-04
       H -5.46319e-04  3.37028e-04 -1.29834e-03
       H  1.92263e-03 -5.19038e-03 -2.18899e-03
       O -6.53496e-04  1.33444e-03  3.30231e-04
       H -7.19797e-04  4.52314e-03  6.17462e-03
       H -9.50977e-04 -1.98663e-03  2.48918e-04
       O  8.27858e-04 -4.32457e-04  7.26142e-04
       H  2.58371e-03 -2.99316e-03  4.30290e-04
       H  2.63642e-03  5.21783e-03  3.66411e-03
       O  2.96781e-04 -5.95235e-04 -2.36254e-04
       H  1.00945e-02 -4.18363e-04 -7.84206e-03
       H -4.66976e-03 -3.37571e-03 -7.03146e-03
       O -2.74778e-03  1.19500e-04 -2.16634e-04
       H -2.66548e-03  1.06984e-03  2.26544e-04
       H -2.95939e-03  3.11164e-03 -1.89192e-03
       O -2.83542e-05  1.17112e-03  5.46407e-04
       H  1.64774e-03 -1.72560e-03  3.00595e-03
       H  1.48264e-04 -5.19894e-03  4.52236e-03
       O  8.71978e-04 -5.54128e-04 -5.69002e-04
       H  2.56740e-03  4.11001e-03  2.65273e-04
       H -4.52319e-03 -3.68840e-03 -1.74610e-03
       O  3.98350e-04  4.90874e-04 -1.03389e-03
       H  5.25112e-04 -9.04776e-03 -2.38945e-03
       H -3.00629e-03  7.18994e-04  2.07351e-03
       O  1.66193e-03 -2.00047e-04 -1.14358e-03
       H  4.08776e-03 -1.08810e-03  3.22502e-03
       H -5.76936e-03 -4.22751e-03 -2.83759e-04
       O -9.90930e-04  2.00587e-05  1.06274e-03
       H -9.94331e-06 -6.03866e-05 -5.82495e-03
       H  1.35813e-03  1.01459e-02 -1.98272e-03
       O  1.64930e-03 -2.28812e-04 -8.10005e-05
       H -3.79381e-03  1.02203e-03 -1.86329e-03
       H -1.73308e-03  4.86656e-04  3.59460e-04
192
# CELL(abcABC):   16.99620    29.43815    27.67315    90.00000    90.00000    90.00000  Step:          30  Bead:       1 velocities{atomic_unit}  cell{atomic_unit}
       O  1.08440e-03 -6.61976e-04  6.67292e-04
       H -2.91558e-03  1.91914e-03 -2.76318e-03
       H -1.48630e-03 -1.03027e-03  4.31670e-03
       O -3.77917e-04  4.37835e-06  7.14822e-04
       H -5.05538e-04 -6.80052e-03  3.84784e-03
       H -1.90363e-03 -3.01150e-04  4.55857e-03
       O  1.84488e-03  1.61722e-04 -9.72133e-04
       H  4.40270e-03 -5.90394e-03 -5.97248e-04
       H  2.37458e-03  1.77958e-03  6.39701e-04
       O -2.57009e-05 -1.01586e-03 -2.87382e-04
       H  4.37192e-03  1.08818e-03  7.34582e-04
       H -1.81829e-03 -1.86015e-04 -2.93627e-03
       O -2.51457e-04 -8.20888e-04 -7.31697e-04
       H -2.23717e-03 -1.78900e-03  1.13912e-03
       H  2.56115e-03 -2.26035e-03 -5.12498e-03
       O -3.40684e-04  1.92333e-03 -3.71669e-04
       H  2.80509e-03 -2.48130e-05 -3.19717e-03
       H -5.67554e-03  4.52055e-03 -1.22719e-03
       O  1.18426e-03  1.90375e-04 -2.26070e-03
       H -6.99454e-03  3.70251e-03  2.92999e-03
       H  1.87916e-03 -5.88426e-04  8.08984e-03
       O -3.91053e-04  7.47099e-05  1.49582e-04
       H  9.78126e-04 -3.49314e-03 -3.74491e-03
       H  6.85681e-03  2.23390e-03  3.77347e-03
       O  1.22243e-03  2.05475e-03 -1.45334e-03
       H -2.68488e-03 -1.13291e-03 -1.10536e-03
       H  7.61373e-03 -3.81933e-03 -9.99653e-05
       O -2.29688e-03 -8.37891e-04  7.26570e-06
       H -4.25788e-05 -6.17388e-03  1.89461e-03
       H -3.22192e-04 -5.75244e-04 -1.07934e-03
       O -4.80747e-04  1.03258e-03  1.04635e-03
       H  4.91416e-03  9.10656e-03  7.34321e-03
       H -2.75558e-03  1.07767e-04 -4.30636e-04
       O  1.70913e-04  7.23792e-04 -9.61663e-04
       H  5.23184e-04 -3.75739e-03 -8.75767e-03