192
# CELL(abcABC):   16.99620    29.43815    27.67315    90.00000    90.00000    90.00000  Step:           0  Bead:      24 positions{atomic_unit}  cell{atomic_unit}
       O -8.21943e+00 -9.93714e+00 -1.31733e+01
       H  7.30975e+00 -1.09659e+01 -1.36333e+01
       H -6.70309e+00 -1.09427e+01 -1.35003e+01
       O -3.97045e+00 -2.57760e+00 -1.31733e+01
       H -5.43740e+00 -3.60640e+00 -1.36335e+01
       H -2.45410e+00 -3.58307e+00 -1.35002e+01
       O -3.95479e+00 -1.25494e+01 -7.82537e-01
       H -3.95303e+00 -1.43463e+01 -2.27998e-01
       H -4.14654e+00 -1.25640e+01 -2.59980e+00
       O -8.20381e+00 -5.18980e+00 -7.82573e-01
       H -8.20206e+00 -6.98662e+00 -2.28079e-01
       H -8.39554e+00 -5.20430e+00 -2.59985e+00
       O -4.52774e+00 -1.21415e+01 -6.25501e+00
       H -6.04401e+00 -1.11359e+01 -6.58198e+00
       H -3.06070e+00 -1.11128e+01 -6.71509e+00
       O  8.21948e+00 -4.78197e+00 -6.25503e+00
       H  6.70316e+00 -3.77646e+00 -6.58191e+00
       H -7.30970e+00 -3.75321e+00 -6.71514e+00
       O  8.20373e+00 -9.52922e+00 -7.70081e+00
       H  8.39566e+00 -9.51468e+00 -9.51806e+00
       H  8.20220e+00 -7.73240e+00 -7.14624e+00
       O -4.54345e+00 -2.16975e+00 -7.70084e+00
       H -4.35162e+00 -2.15526e+00 -9.51812e+00
       H -4.54503e+00 -3.72917e-01 -7.14634e+00
       O -8.21943e+00 -9.93697e+00  6.63195e-01
       H  7.30977e+00 -1.09657e+01  2.03202e-01
       H -6.70308e+00 -1.09425e+01  3.36227e-01
       O -3.97044e+00 -2.57760e+00  6.63173e-01
       H -5.43747e+00 -3.60635e+00  2.03069e-01
       H -2.45410e+00 -3.58312e+00  3.36346e-01
       O -3.95472e+00 -1.25494e+01  1.30540e+01
       H -3.95309e+00 -1.43462e+01  1.36086e+01
       H -4.14653e+00 -1.25640e+01  1.12368e+01
       O -8.20380e+00 -5.18990e+00  1.30541e+01
       H -8.20202e+00 -6.98672e+00  1.36085e+01
       H -8.39553e+00 -5.20434e+00  1.12368e+01
       O -4.52771e+00 -1.21415e+01  7.58159e+00
       H -6.04402e+00 -1.11360e+01  7.25460e+00
       H -3.06070e+00 -1.11128e+01  7.12152e+00
       O  8.21944e+00 -4.78191e+00  7.58149e+00
       H  6.70312e+00 -3.77633e+00  7.25453e+00
       H -7.30974e+00 -3.75322e+00  7.12139e+00
       O  8.20378e+00 -9.52926e+00  6.13582e+00
       H  8.39564e+00 -9.51474e+00  4.31856e+00
       H  8.20221e+00 -7.73246e+00  6.69037e+00
       O -4.54344e+00 -2.16971e+00  6.13568e+00
       H -4.35161e+00 -2.15522e+00  4.31840e+00
       H -4.54506e+00 -3.72896e-01  6.69017e+00
       O -8.21947e+00  4.78210e+00 -1.31734e+01
       H  7.30974e+00  3.75335e+00 -1.36334e+01
       H -6.70314e+00  3.77651e+00 -1.35002e+01
       O -3.97046e+00  1.21415e+01 -1.31733e+01
       H -5.43745e+00  1.11127e+01 -1.36334e+01
       H -2.45410e+00  1.11360e+01 -1.35002e+01
       O -3.95479e+00  2.16971e+00 -7.82462e-01
       H -3.95303e+00  3.72884e-01 -2.27933e-01
       H -4.14646e+00  2.15509e+00 -2.59975e+00
       O -8.20376e+00  9.52923e+00 -7.82499e-01
       H -8.20200e+00  7.73238e+00 -2.27998e-01
       H -8.39546e+00  9.51472e+00 -2.59977e+00
       O -4.52774e+00  2.57749e+00 -6.25512e+00
       H -6.04400e+00  3.58312e+00 -6.58197e+00
       H -3.06066e+00  3.60618e+00 -6.71512e+00
       O  8.21949e+00  9.93715e+00 -6.25509e+00
       H  6.70318e+00  1.09426e+01 -6.58202e+00
       H -7.30970e+00  1.09659e+01 -6.71526e+00
       O  8.20366e+00  5.18988e+00 -7.70077e+00
       H  8.39552e+00  5.20437e+00 -9.51803e+00
       H  8.20217e+00  6.98669e+00 -7.14625e+00
       O -4.54337e+00  1.25494e+01 -7.70088e+00
       H -4.35159e+00  1.25639e+01 -9.51817e+00
       H -4.54500e+00  1.43462e+01 -7.14634e+00
       O -8.21952e+00  4.78190e+00  6.63226e-01
       H  7.30971e+00  3.75313e+00  2.03107e-01
       H -6.70317e+00  3.77635e+00  3.36440e-01
       O -3.97040e+00  1.21415e+01  6.63326e-01
       H -5.43738e+00  1.11127e+01  2.03185e-01
       H -2.45407e+00  1.11360e+01  3.36426e-01
       O -3.95476e+00  2.16964e+00  1.30541e+01
       H -3.95303e+00  3.72832e-01  1.36087e+01
       H -4.14651e+00  2.15510e+00  1.12369e+01
       O -8.20373e+00  9.52937e+00  1.30540e+01
       H -8.20206e+00  7.73252e+00  1.36085e+01
       H -8.39548e+00  9.51483e+00  1.12368e+01
       O -4.52770e+00  2.57756e+00  7.58140e+00
       H -6.04399e+00  3.58315e+00  7.25450e+00
       H -3.06066e+00  3.60630e+00  7.12138e+00
       O  8.21951e+00  9.93714e+00  7.58157e+00
       H  6.70319e+00  1.09427e+01  7.25463e+00
       H -7.30968e+00  1.09658e+01  7.12140e+00
       O  8.20369e+00  5.18993e+00  6.13578e+00
       H  8.39547e+00  5.20441e+00  4.31850e+00
       H  8.20212e+00  6.98674e+00  6.69030e+00
       O -4.54348e+00  1.25494e+01  6.13570e+00
       H -4.35158e+00  1.25639e+01  4.31845e+00
       H -4.54503e+00  1.43462e+01  6.69025e+00
       O  2.78573e-01 -9.93717e+00 -1.31734e+01
       H -1.18842e+00 -1.09659e+01 -1.36336e+01
       H  1.79493e+00 -1.09427e+01 -1.35002e+01
       O  4.52772e+00 -2.57751e+00 -1.31733e+01
       H  3.06068e+00 -3.60627e+00 -1.36334e+01
       H  6.04403e+00 -3.58305e+00 -1.35003e+01
       O  4.54334e+00 -1.25494e+01 -7.82465e-01
       H  4.54513e+00 -1.43463e+01 -2.27989e-01
       H  4.35168e+00 -1.25640e+01 -2.59974e+00
       O  2.94294e-01 -5.18980e+00 -7.82487e-01
       H  2.96032e-01 -6.98663e+00 -2.28053e-01
       H  1.02602e-01 -5.20427e+00 -2.59977e+00
       O  3.97042e+00 -1.21415e+01 -6.25517e+00
       H  2.45414e+00 -1.11359e+01 -6.58198e+00
       H  5.43747e+00 -1.11128e+01 -6.71526e+00
       O -2.78672e-01 -4.78194e+00 -6.25508e+00
       H -1.79498e+00 -3.77636e+00 -6.58199e+00
       H  1.18837e+00 -3.75320e+00 -6.71514e+00
       O -2.94511e-01 -9.52920e+00 -7.70081e+00
       H -1.02600e-01 -9.51466e+00 -9.51806e+00
       H -2.96005e-01 -7.73240e+00 -7.14625e+00
       O  3.95462e+00 -2.16972e+00 -7.70080e+00
       H  4.14654e+00 -2.15521e+00 -9.51804e+00
       H  3.95318e+00 -3.72879e-01 -7.14628e+00
       O  2.78541e-01 -9.93701e+00  6.63104e-01
       H -1.18842e+00 -1.09658e+01  2.03011e-01
       H  1.79493e+00 -1.09425e+01  3.36333e-01
       O  4.52773e+00 -2.57757e+00  6.63187e-01
       H  3.06068e+00 -3.60633e+00  2.03125e-01
       H  6.04402e+00 -3.58308e+00  3.36357e-01
       O  4.54332e+00 -1.25494e+01  1.30541e+01
       H  4.54518e+00 -1.43462e+01  1.36086e+01
       H  4.35169e+00 -1.25640e+01  1.12368e+01
       O  2.94281e-01 -5.18991e+00  1.30541e+01
       H  2.95995e-01 -6.98675e+00  1.36085e+01
       H  1.02570e-01 -5.20435e+00  1.12368e+01
       O  3.97044e+00 -1.21415e+01  7.58145e+00
       H  2.45413e+00 -1.11360e+01  7.25466e+00
       H  5.43745e+00 -1.11128e+01  7.12135e+00
       O -2.78601e-01 -4.78191e+00  7.58148e+00
       H -1.79495e+00 -3.77634e+00  7.25458e+00
       H  1.18839e+00 -3.75323e+00  7.12138e+00
       O -2.94501e-01 -9.52922e+00  6.13582e+00
       H -1.02637e-01 -9.51466e+00  4.31854e+00
       H -2.96013e-01 -7.73241e+00  6.69035e+00
       O  3.95462e+00 -2.16967e+00  6.13570e+00
       H  4.14656e+00 -2.15516e+00  4.31844e+00
       H  3.95315e+00 -3.72836e-01  6.69024e+00
       O  2.78636e-01  4.78206e+00 -1.31735e+01
       H -1.18832e+00  3.75329e+00 -1.36335e+01
       H  1.79499e+00  3.77651e+00 -1.35003e+01
       O  4.52773e+00  1.21415e+01 -1.31733e+01
       H  3.06066e+00  1.11127e+01 -1.36334e+01
       H  6.04403e+00  1.11360e+01 -1.35003e+01
       O  4.54332e+00  2.16970e+00 -7.82499e-01
       H  4.54510e+00  3.72872e-01 -2.27973e-01
       H  4.35161e+00  2.15513e+00 -2.59979e+00
       O  2.94188e-01  9.52923e+00 -7.82517e-01
       H  2.95976e-01  7.73239e+00 -2.28033e-01
       H  1.02486e-01  9.51470e+00 -2.59980e+00
       O  3.97041e+00  2.57752e+00 -6.25508e+00
       H  2.45414e+00  3.58307e+00 -6.58188e+00
       H  5.43747e+00  3.60626e+00 -6.71516e+00
       O -2.78677e-01  9.93714e+00 -6.25506e+00
       H -1.79497e+00  1.09427e+01 -6.58203e+00
       H  1.18838e+00  1.09659e+01 -6.71517e+00
       O -2.94451e-01  5.18990e+00 -7.70074e+00
       H -1.02475e-01  5.20442e+00 -9.51799e+00
       H -2.95971e-01  6.98671e+00 -7.14623e+00
       O  3.95453e+00  1.25494e+01 -7.70088e+00
       H  4.14650e+00  1.25638e+01 -9.51813e+00
       H  3.95314e+00  1.43462e+01 -7.14638e+00
       O  2.78666e-01  4.78190e+00  6.63181e-01
       H -1.18838e+00  3.75314e+00  2.03219e-01
       H  1.79499e+00  3.77637e+00  3.36305e-01
       O  4.52768e+00  1.21415e+01  6.63233e-01
       H  3.06065e+00  1.11127e+01  2.03130e-01
       H  6.04402e+00  1.11359e+01  3.36318e-01
       O  4.54337e+00  2.16963e+00  1.30541e+01
       H  4.54515e+00  3.72778e-01  1.36085e+01
       H  4.35165e+00  2.15511e+00  1.12368e+01
       O  2.94139e-01  9.52935e+00  1.30540e+01
       H  2.96028e-01  7.73252e+00  1.36085e+01
       H  1.02508e-01  9.51480e+00  1.12368e+01
       O  3.97044e+00  2.57752e+00  7.58146e+00
       H  2.45409e+00  3.58312e+00  7.25468e+00
       H  5.43745e+00  3.60627e+00  7.12136e+00
       O -2.78642e-01  9.93713e+00  7.58156e+00
       H -1.79498e+00  1.09426e+01  7.25459e+00
       H  1.18834e+00  1.09658e+01  7.12145e+00
       O -2.94462e-01  5.18993e+00  6.13575e+00
       H -1.02485e-01  5.20444e+00  4.31854e+00
       H -2.95928e-01  6.98677e+00  6.69031e+00
       O  3.95461e+00  1.25493e+01  6.13580e+00
       H  4.14651e+00  1.25638e+01  4.31854e+00
       H  3.95313e+00  1.43462e+01  6.69028e+00
192
# CELL(abcABC):   16.99620    29.43815    27.67315    90.00000    90.00000    90.00000  Step:          10  Bead:      24 positions{atomic_unit}  cell{atomic_unit}
       O -8.20670e+00 -9.94062e+00 -1.31517e+01
       H  7.30703e+00 -1.09538e+01 -1.36574e+01
       H -6.61798e+00 -1.09268e+01 -1.35507e+01
       O -3.93632e+00 -2.53309e+00 -1.31781e+01
       H -5.35069e+00 -3.80906e+00 -1.34848e+01
       H -2.36241e+00 -3.47262e+00 -1.36089e+01
       O -3.96792e+00 -1.25545e+01 -8.07095e-01
       H -3.90794e+00 -1.41769e+01 -2.88862e-01
       H -4.17305e+00 -1.25522e+01 -2.65373e+00
       O -8.23484e+00 -5.24873e+00 -7.75566e-01
       H -8.23908e+00 -6.95922e+00 -2.59583e-01
       H -8.28831e+00 -5.07044e+00 -2.55783e+00
       O -4.55734e+00 -1.21321e+01 -6.27793e+00
       H -5.89773e+00 -1.09554e+01 -6.61792e+00
       H -3.02460e+00 -1.13269e+01 -6.59995e+00
       O  8.22695e+00 -4.79881e+00 -6.23781e+00
       H  6.72763e+00 -4.01987e+00 -6.49655e+00
       H -7.22626e+00 -3.68658e+00 -6.73311e+00
       O  8.20572e+00 -9.52882e+00 -7.71165e+00
       H  8.46449e+00 -9.33509e+00 -9.57931e+00
       H  8.10659e+00 -7.81082e+00 -7.02430e+00
       O -4.56865e+00 -2.17693e+00 -7.67864e+00
       H -4.23843e+00 -2.15714e+00 -9.38854e+00
       H -4.58783e+00 -5.25630e-01 -7.08713e+00
       O -8.24755e+00 -9.87898e+00  6.29830e-01
       H  7.34278e+00 -1.10172e+01  1.73239e-01
       H -6.61305e+00 -1.08588e+01  2.37820e-01
       O -3.97955e+00 -2.54597e+00  6.90166e-01
       H -5.45213e+00 -3.63862e+00  1.45382e-01
       H -2.43697e+00 -3.47732e+00  4.89698e-01
       O -4.00391e+00 -1.25313e+01  1.30629e+01
       H -3.91312e+00 -1.41669e+01  1.36207e+01
       H -4.26040e+00 -1.24818e+01  1.10902e+01
       O -8.19640e+00 -5.16957e+00  1.30487e+01
       H -8.15910e+00 -7.17706e+00  1.35000e+01
       H -8.28338e+00 -5.18589e+00  1.12202e+01
       O -4.52080e+00 -1.21288e+01  7.57328e+00
       H -6.20202e+00 -1.09352e+01  7.14662e+00
       H -3.14123e+00 -1.11796e+01  7.09632e+00
       O  8.19958e+00 -4.77060e+00  7.57881e+00
       H  6.56619e+00 -3.79124e+00  7.31120e+00
       H -7.33077e+00 -3.79239e+00  6.98975e+00
       O  8.18219e+00 -9.47160e+00  6.16226e+00
       H  8.45926e+00 -9.45084e+00  4.35038e+00
       H  8.24890e+00 -7.78663e+00  6.81299e+00
       O -4.52544e+00 -2.15889e+00  6.11338e+00
       H -4.41417e+00 -2.11715e+00  4.49222e+00
       H -4.62850e+00 -2.43902e-01  6.77291e+00
       O -8.21822e+00  4.82033e+00 -1.31516e+01
       H  7.35436e+00  3.58820e+00 -1.35824e+01
       H -6.68254e+00  3.71336e+00 -1.35278e+01
       O -4.00863e+00  1.21607e+01 -1.31773e+01
       H -5.57985e+00  1.11593e+01 -1.35363e+01
       H -2.38301e+00  1.11495e+01 -1.35648e+01
       O -3.93149e+00  2.15883e+00 -8.14946e-01
       H -3.93327e+00  3.18983e-01 -3.13503e-01
       H -4.17124e+00  2.21435e+00 -2.80434e+00
       O -8.20289e+00  9.52872e+00 -8.07630e-01
       H -8.12933e+00  7.73257e+00 -2.15820e-01
       H -8.47470e+00  9.42067e+00 -2.60079e+00
       O -4.52735e+00  2.59799e+00 -6.23384e+00
       H -6.07455e+00  3.58622e+00 -6.52321e+00
       H -3.26472e+00  3.60530e+00 -6.68932e+00
       O  8.18269e+00  9.93454e+00 -6.25599e+00
       H  6.59755e+00  1.09038e+01 -6.69501e+00
       H -7.39082e+00  1.10280e+01 -6.64369e+00
       O  8.18303e+00  5.23874e+00 -7.66105e+00
       H  8.44203e+00  5.19316e+00 -9.61122e+00
       H  8.24999e+00  6.96656e+00 -6.95612e+00
       O -4.52642e+00  1.26060e+01 -7.76197e+00
       H -4.22599e+00  1.25364e+01 -9.70986e+00
       H -4.67724e+00  1.43025e+01 -7.14573e+00
       O -8.23600e+00  4.74399e+00  6.42484e-01
       H  7.37984e+00  3.78072e+00  4.43001e-01
       H -6.70728e+00  3.62089e+00  1.74693e-01
       O -3.96337e+00  1.21099e+01  6.68136e-01
       H -5.43669e+00  1.10760e+01  1.74331e-01
       H -2.43674e+00  1.10870e+01  3.19877e-01
       O -3.94084e+00  2.21073e+00  1.30493e+01
       H -3.96260e+00  4.55111e-01  1.36654e+01
       H -4.32511e+00  2.16275e+00  1.12407e+01
       O -8.21415e+00  9.48942e+00  1.30807e+01
       H -8.09039e+00  7.67500e+00  1.36455e+01
       H -8.56352e+00  9.49795e+00  1.11584e+01
       O -4.53551e+00  2.58731e+00  7.59150e+00
       H -6.13871e+00  3.39381e+00  7.41870e+00
       H -3.00463e+00  3.58082e+00  7.15051e+00
       O  8.20551e+00  9.93870e+00  7.54699e+00
       H  6.65645e+00  1.11788e+01  7.32585e+00
       H -7.26309e+00  1.09793e+01  7.10003e+00
       O  8.20345e+00  5.16705e+00  6.17041e+00
       H  8.43894e+00  5.35665e+00  4.28385e+00
       H  8.10238e+00  6.81052e+00  6.61215e+00
       O -4.57196e+00  1.25271e+01  6.13023e+00
       H -4.27546e+00  1.24554e+01  4.27039e+00
       H -4.43042e+00  1.43136e+01  6.75840e+00
       O  2.87817e-01 -9.88168e+00 -1.31890e+01
       H -1.19893e+00 -1.09497e+01 -1.36250e+01
       H  1.81333e+00 -1.09451e+01 -1.33840e+01
       O  4.55600e+00 -2.61807e+00 -1.31794e+01
       H  3.04695e+00 -3.63106e+00 -1.36050e+01
       H  5.97960e+00 -3.55244e+00 -1.34183e+01
       O  4.51389e+00 -1.25355e+01 -7.76363e-01
       H  4.52184e+00 -1.42893e+01 -1.92022e-01
       H  4.25758e+00 -1.24631e+01 -2.72864e+00
       O  3.30528e-01 -5.21305e+00 -7.45813e-01
       H  5.04416e-01 -6.86888e+00 -1.86030e-01
       H  9.34135e-03 -5.15613e+00 -2.65531e+00
       O  3.97512e+00 -1.21293e+01 -6.22892e+00
       H  2.52487e+00 -1.11671e+01 -6.45931e+00
       H  5.46199e+00 -1.09222e+01 -6.73781e+00
       O -2.98700e-01 -4.75021e+00 -6.25374e+00
       H -1.94609e+00 -3.79738e+00 -6.54849e+00
       H  1.21289e+00 -3.72701e+00 -6.72963e+00
       O -2.28820e-01 -9.50096e+00 -7.71153e+00
       H -1.41024e-01 -9.47551e+00 -9.62026e+00
       H -2.13628e-01 -7.86467e+00 -7.23797e+00
       O  4.00492e+00 -2.17242e+00 -7.69900e+00
       H  4.06250e+00 -2.23719e+00 -9.43275e+00
       H  4.05876e+00 -2.63009e-01 -7.21005e+00
       O  2.89403e-01 -9.92871e+00  6.24571e-01
       H -1.23474e+00 -1.09655e+01  1.74299e-01
       H  1.74952e+00 -1.10094e+01  2.97575e-01
       O  4.51522e+00 -2.57560e+00  6.68329e-01
       H  3.14717e+00 -3.67695e+00  2.21020e-01
       H  5.92961e+00 -3.63395e+00  2.58585e-01
       O  4.55311e+00 -1.25079e+01  1.30431e+01
       H  4.52842e+00 -1.43025e+01  1.36498e+01
       H  4.40779e+00 -1.26118e+01  1.13722e+01
       O  2.79688e-01 -5.23438e+00  1.30724e+01
       H  2.74949e-01 -6.93230e+00  1.37187e+01
       H  3.41617e-01 -5.22701e+00  1.12717e+01
       O  3.92328e+00 -1.21445e+01  7.55737e+00
       H  2.54050e+00 -1.11084e+01  7.24782e+00
       H  5.50524e+00 -1.09974e+01  7.20452e+00
       O -2.87673e-01 -4.77599e+00  7.54583e+00
       H -1.74225e+00 -3.74813e+00  7.39363e+00
       H  1.31126e+00 -3.78422e+00  7.09730e+00
       O -3.03934e-01 -9.58021e+00  6.16084e+00
       H -2.88358e-01 -9.67768e+00  4.14335e+00
       H -2.06711e-01 -7.67007e+00  6.66769e+00
       O  3.89954e+00 -2.19767e+00  6.13545e+00
       H  4.31140e+00 -2.27971e+00  4.37157e+00
       H  3.84044e+00 -3.09982e-01  6.79472e+00
       O  3.09502e-01  4.81300e+00 -1.31626e+01
       H -1.13664e+00  3.89094e+00 -1.35761e+01
       H  1.89073e+00  3.67995e+00 -1.35121e+01
       O  4.51273e+00  1.21397e+01 -1.31718e+01
       H  3.26243e+00  1.10025e+01 -1.34597e+01
       H  6.01505e+00  1.11273e+01 -1.34879e+01
       O  4.54342e+00  2.13336e+00 -7.61756e-01
       H  4.50942e+00  3.27015e-01 -2.59147e-01
       H  4.37403e+00  2.17418e+00 -2.55028e+00
       O  2.70792e-01  9.56467e+00 -8.01361e-01
       H  4.00362e-01  7.75780e+00 -8.24350e-02
       H  2.64422e-02  9.47534e+00 -2.73048e+00
       O  3.96779e+00  2.55107e+00 -6.21700e+00
       H  2.46503e+00  3.41842e+00 -6.58544e+00
       H  5.57205e+00  3.51024e+00 -6.61118e+00
       O -2.63778e-01  9.97305e+00 -6.20530e+00
       H -1.72583e+00  1.10420e+01 -6.55377e+00
       H  1.07786e+00  1.10328e+01 -6.71734e+00
       O -2.62267e-01  5.18883e+00 -7.64395e+00
       H  5.78057e-02  5.28635e+00 -9.48462e+00
       H -2.01420e-01  7.10925e+00 -7.16865e+00
       O  3.90329e+00  1.25491e+01 -7.71215e+00
       H  4.20841e+00  1.25684e+01 -9.63495e+00
       H  3.93568e+00  1.43621e+01 -7.24939e+00
       O  2.97366e-01  4.82232e+00  6.39256e-01
       H -1.10883e+00  3.64023e+00  3.50103e-01
       H  1.81041e+00  3.68327e+00  4.02661e-01
       O  4.53344e+00  1.21277e+01  6.79198e-01
       H  3.11718e+00  1.11953e+01  1.84168e-01
       H  6.08972e+00  1.11495e+01  4.67367e-01
       O  4.56519e+00  2.16172e+00  1.30546e+01
       H  4.61682e+00  2.36065e-01  1.35727e+01
       H  4.35993e+00  2.31684e+00  1.13090e+01
       O  2.99836e-01  9.52860e+00  1.30529e+01
       H  4.59122e-01  7.66468e+00  1.36891e+01
       H  1.48164e-01  9.47913e+00  1.13335e+01
       O  3.96529e+00  2.56863e+00  7.59794e+00
       H  2.37709e+00  3.50188e+00  7.38749e+00
       H  5.34294e+00  3.63025e+00  7.05307e+00
       O -2.64347e-01  9.92910e+00  7.56366e+00
       H -1.82065e+00  1.09272e+01  7.36816e+00
       H  1.07496e+00  1.10078e+01  7.10847e+00
       O -3.11055e-01  5.17887e+00  6.14791e+00
       H -7.40463e-02  5.41234e+00  4.46650e+00
       H -3.92907e-01  6.95325e+00  6.65274e+00
       O  3.89381e+00  1.25952e+01  6.13348e+00
       H  4.14166e+00  1.25171e+01  4.16515e+00
       H  3.82591e+00  1.43215e+01  6.69007e+00
192
# CELL(abcABC):   16.99620    29.43815    27.67315    90.00000    90.00000    90.00000  Step:          20  Bead:      24 positions{atomic_unit}  cell{atomic_unit}
       O -8.21630e+00 -9.95401e+00 -1.31685e+01
       H  7.09499e+00 -1.08919e+01 -1.35465e+01
       H -6.54825e+00 -1.08658e+01 -1.36054e+01
       O -3.93966e+00 -2.52947e+00 -1.31808e+01
       H -5.47258e+00 -3.90830e+00 -1.33314e+01
       H -2.19466e+00 -3.45261e+00 -1.34520e+01
       O -3.98183e+00 -1.25198e+01 -8.35854e-01
       H -3.88786e+00 -1.42574e+01 -3.55550e-01
       H -4.25615e+00 -1.25821e+01 -2.70368e+00
       O -8.26777e+00 -5.26463e+00 -7.57904e-01
       H -8.22085e+00 -6.82172e+00 -2.75408e-01
       H -8.30726e+00 -4.98760e+00 -2.34250e+00
       O -4.52879e+00 -1.21331e+01 -6.23134e+00
       H -5.76065e+00 -1.10693e+01 -6.63842e+00
       H -2.88122e+00 -1.14210e+01 -6.58860e+00
       O  8.29355e+00 -4.77468e+00 -6.28121e+00
       H  6.92813e+00 -3.99838e+00 -6.59304e+00
       H -7.33942e+00 -3.46182e+00 -6.72951e+00
       O  8.19797e+00 -9.55507e+00 -7.69702e+00
       H  8.61491e+00 -9.40207e+00 -9.60499e+00
       H  7.94334e+00 -7.70564e+00 -6.99655e+00
       O -4.53245e+00 -2.22971e+00 -7.64715e+00
       H -4.13875e+00 -2.14018e+00 -9.38664e+00
       H -4.50433e+00 -5.02475e-01 -7.06479e+00
       O -8.23432e+00 -9.84349e+00  6.35327e-01
       H  7.50909e+00 -1.09504e+01  1.27366e-01
       H -6.58957e+00 -1.06918e+01  1.38401e-01
       O -3.90314e+00 -2.55885e+00  7.12008e-01
       H -5.30781e+00 -3.82871e+00  3.36843e-01
       H -2.46140e+00 -3.57645e+00  5.82989e-01
       O -4.00547e+00 -1.25361e+01  1.30477e+01
       H -4.04934e+00 -1.43736e+01  1.36867e+01
       H -4.31659e+00 -1.24150e+01  1.11662e+01
       O -8.18340e+00 -5.16447e+00  1.30685e+01
       H -8.20750e+00 -7.17494e+00  1.34125e+01
       H -8.32110e+00 -5.40361e+00  1.11703e+01
       O -4.51730e+00 -1.21471e+01  7.59782e+00
       H -6.15623e+00 -1.09827e+01  7.10516e+00
       H -3.20889e+00 -1.11182e+01  6.97670e+00
       O  8.21715e+00 -4.79916e+00  7.57581e+00
       H  6.54958e+00 -3.80129e+00  7.41522e+00
       H -7.23320e+00 -3.57925e+00  6.96297e+00
       O  8.20938e+00 -9.46889e+00  6.15563e+00
       H  8.39984e+00 -9.60130e+00  4.42406e+00
       H  8.43978e+00 -7.92605e+00  6.72257e+00
       O -4.55080e+00 -2.12255e+00  6.13041e+00
       H -4.28039e+00 -2.15501e+00  4.39862e+00
       H -4.71163e+00 -1.67489e-01  6.67882e+00
       O -8.24485e+00  4.76648e+00 -1.31868e+01
       H  7.30235e+00  3.66318e+00 -1.34858e+01
       H -6.63466e+00  3.74305e+00 -1.34842e+01
       O -4.02981e+00  1.21766e+01 -1.32041e+01
       H -5.53278e+00  1.10611e+01 -1.33270e+01
       H -2.32489e+00  1.12600e+01 -1.33455e+01
       O -3.95604e+00  2.16889e+00 -8.56029e-01
       H -4.08539e+00  2.62785e-01 -5.03904e-01
       H -4.24351e+00  2.34700e+00 -2.84748e+00
       O -8.20264e+00  9.50546e+00 -7.92544e-01
       H -8.09301e+00  7.84287e+00 -1.24865e-01
       H -8.40969e+00  9.52356e+00 -2.49632e+00
       O -4.50313e+00  2.62807e+00 -6.22073e+00
       H -5.92090e+00  3.59423e+00 -6.58271e+00
       H -3.28650e+00  3.92906e+00 -6.80921e+00
       O  8.14708e+00  9.89336e+00 -6.26266e+00
       H  6.39874e+00  1.07990e+01 -6.63369e+00
       H -7.46183e+00  1.10207e+01 -6.65233e+00
       O  8.20550e+00  5.22175e+00 -7.69412e+00
       H  8.46531e+00  5.07506e+00 -9.62626e+00
       H  8.20715e+00  6.88038e+00 -6.94260e+00
       O -4.53880e+00  1.25926e+01 -7.77201e+00
       H -4.20224e+00  1.25351e+01 -9.43330e+00
       H -4.74004e+00  1.42882e+01 -7.17569e+00
       O -8.24724e+00  4.72861e+00  6.47638e-01
       H  7.46790e+00  3.78483e+00  4.15779e-01
       H -6.75761e+00  3.55723e+00  1.16849e-01
       O -3.94366e+00  1.20845e+01  6.47663e-01
       H -5.54739e+00  1.11212e+01  3.15073e-01
       H -2.49977e+00  1.10297e+01  4.28404e-01
       O -3.93364e+00  2.20558e+00  1.30279e+01
       H -3.91668e+00  3.58480e-01  1.37056e+01
       H -4.36320e+00  2.13343e+00  1.12487e+01
       O -8.25843e+00  9.46653e+00  1.30627e+01
       H -8.24408e+00  7.72916e+00  1.35058e+01
       H -8.58291e+00  9.59336e+00  1.11194e+01
       O -4.53126e+00  2.60912e+00  7.61081e+00
       H -6.15692e+00  3.39759e+00  7.48672e+00
       H -3.03417e+00  3.60039e+00  7.04512e+00
       O  8.20076e+00  9.97711e+00  7.54923e+00
       H  6.69688e+00  1.13811e+01  7.36412e+00
       H -7.20169e+00  1.09983e+01  6.97466e+00
       O  8.21552e+00  5.14727e+00  6.17613e+00
       H  8.44822e+00  5.34775e+00  4.32843e+00
       H  8.12572e+00  6.92210e+00  6.63114e+00
       O -4.54824e+00  1.25214e+01  6.14942e+00
       H -4.23865e+00  1.25803e+01  4.28796e+00
       H -4.39683e+00  1.43286e+01  6.70336e+00
       O  2.90512e-01 -9.83286e+00 -1.32231e+01
       H -1.20262e+00 -1.09437e+01 -1.33507e+01
       H  1.77281e+00 -1.10790e+01 -1.33151e+01
       O  4.55482e+00 -2.60480e+00 -1.32095e+01
       H  3.14519e+00 -3.61234e+00 -1.40295e+01
       H  5.98146e+00 -3.52168e+00 -1.33614e+01
       O  4.49232e+00 -1.25441e+01 -7.76346e-01
       H  4.55601e+00 -1.44717e+01 -2.42522e-01
       H  4.31743e+00 -1.22457e+01 -2.82329e+00
       O  3.41574e-01 -5.22125e+00 -7.34659e-01
       H  5.35289e-01 -6.92472e+00 -2.16698e-01
       H -8.95143e-02 -5.09768e+00 -2.56295e+00
       O  3.96924e+00 -1.20779e+01 -6.21365e+00
       H  2.47774e+00 -1.11319e+01 -6.69777e+00
       H  5.49318e+00 -1.09545e+01 -6.66114e+00
       O -2.97051e-01 -4.75653e+00 -6.26658e+00
       H -2.05329e+00 -3.86298e+00 -6.49735e+00
       H  1.27636e+00 -3.58928e+00 -6.84966e+00
       O -1.86914e-01 -9.47073e+00 -7.70556e+00
       H -1.11350e-01 -9.57748e+00 -9.60689e+00
       H -1.44255e-01 -7.73740e+00 -7.22543e+00
       O  3.99778e+00 -2.16453e+00 -7.68669e+00
       H  4.07023e+00 -2.07501e+00 -9.48339e+00
       H  4.14776e+00 -2.40831e-01 -7.28560e+00
       O  3.19928e-01 -9.89297e+00  5.72941e-01
       H -1.21812e+00 -1.08767e+01  1.80976e-01
       H  1.80918e+00 -1.09760e+01  4.06913e-01
       O  4.55141e+00 -2.59643e+00  6.31683e-01
       H  3.15539e+00 -3.67176e+00  2.59530e-01
       H  6.10503e+00 -3.81106e+00  3.20084e-01
       O  4.53214e+00 -1.24915e+01  1.30438e+01
       H  4.58406e+00 -1.41429e+01  1.35835e+01
       H  4.64202e+00 -1.23096e+01  1.13746e+01
       O  3.44085e-01 -5.26259e+00  1.31024e+01
       H  2.85283e-01 -6.86538e+00  1.38678e+01
       H  2.74385e-01 -5.46653e+00  1.14104e+01
       O  3.92217e+00 -1.21483e+01  7.54390e+00
       H  2.65396e+00 -1.11082e+01  7.28566e+00
       H  5.24710e+00 -1.10743e+01  7.14284e+00
       O -2.48604e-01 -4.77558e+00  7.58046e+00
       H -1.68484e+00 -3.71951e+00  7.40577e+00
       H  1.31508e+00 -3.72791e+00  7.26836e+00
       O -2.87350e-01 -9.59041e+00  6.18001e+00
       H -3.74823e-01 -9.65607e+00  4.03910e+00
       H -1.99298e-01 -7.70831e+00  6.58103e+00
       O  3.88658e+00 -2.20163e+00  6.13317e+00
       H  4.19507e+00 -2.36788e+00  4.26669e+00
       H  3.76758e+00 -4.02355e-01  6.85059e+00
       O  3.12796e-01  4.84297e+00 -1.31086e+01
       H -1.10753e+00  3.98882e+00 -1.35572e+01
       H  1.88324e+00  3.83813e+00 -1.34911e+01
       O  4.49488e+00  1.21594e+01 -1.31619e+01
       H  3.20080e+00  1.09905e+01 -1.34813e+01
       H  6.02644e+00  1.11269e+01 -1.34695e+01
       O  4.56794e+00  2.14460e+00 -7.73937e-01
       H  4.46072e+00  3.47527e-01 -1.49886e-01
       H  4.50373e+00  2.35084e+00 -2.53527e+00
       O  2.37186e-01  9.55465e+00 -7.73126e-01
       H  4.13844e-01  7.67242e+00 -1.55939e-01
       H  7.25928e-02  9.37450e+00 -2.70625e+00
       O  3.95273e+00  2.57293e+00 -6.21674e+00
       H  2.31801e+00  3.36226e+00 -6.62555e+00
       H  5.64561e+00  3.45699e+00 -6.52893e+00
       O -2.40200e-01  1.00004e+01 -6.18094e+00
       H -1.85232e+00  1.09956e+01 -6.48704e+00
       H  1.07380e+00  1.10601e+01 -6.71244e+00
       O -3.00701e-01  5.15359e+00 -7.66866e+00
       H -2.30146e-02  5.20392e+00 -9.48911e+00
       H -2.12416e-01  7.06085e+00 -7.01527e+00
       O  3.93074e+00  1.25747e+01 -7.70463e+00
       H  4.31470e+00  1.25508e+01 -9.55184e+00
       H  3.91971e+00  1.43954e+01 -7.24905e+00
       O  2.80541e-01  4.84799e+00  6.44976e-01
       H -1.07928e+00  3.75663e+00  2.26001e-01
       H  1.76086e+00  3.57354e+00  5.25497e-01
       O  4.55254e+00  1.20839e+01  7.01512e-01
       H  3.12237e+00  1.11803e+01  1.82621e-01
       H  6.22657e+00  1.11256e+01  4.43292e-01
       O  4.55760e+00  2.15572e+00  1.30770e+01
       H  4.66630e+00  1.39346e-01  1.34188e+01
       H  4.26750e+00  2.31729e+00  1.13028e+01
       O  2.30709e-01  9.52497e+00  1.30775e+01
       H  7.60697e-01  7.73107e+00  1.39151e+01
       H  3.14225e-01  9.47912e+00  1.13333e+01
       O  3.99209e+00  2.56264e+00  7.60857e+00
       H  2.50686e+00  3.47649e+00  7.31317e+00
       H  5.36506e+00  3.70612e+00  7.00239e+00
       O -2.85267e-01  9.91365e+00  7.56346e+00
       H -1.74453e+00  1.10335e+01  7.49757e+00
       H  1.06072e+00  1.09161e+01  7.06528e+00
       O -3.18093e-01  5.21963e+00  6.19881e+00
       H  3.42973e-03  5.42976e+00  4.45229e+00
       H -4.00461e-01  6.90875e+00  6.76353e+00
       O  3.89303e+00  1.25571e+01  6.06931e+00
       H  4.16516e+00  1.25143e+01  4.12723e+00
       H  3.82686e+00  1.42534e+01  6.72578e+00
192
# CELL(abcABC):   16.99620    29.43815    27.67315    90.00000    90.00000    90.00000  Step:          30  Bead:      24 positions{atomic_unit}  cell{atomic_unit}
       O -8.19805e+00 -9.97790e+00 -1.31572e+01
       H  7.12798e+00 -1.08674e+01 -1.34049e+01
       H -6.68908e+00 -1.06668e+01 -1.36004e+01
       O -3.91343e+00 -2.51439e+00 -1.31641e+01
       H -5.50431e+00 -3.91352e+00 -1.32984e+01
       H -2.41128e+00 -3.46102e+00 -1.34973e+01
       O -3.95690e+00 -1.25094e+01 -8.41494e-01
       H -3.98074e+00 -1.43292e+01 -3.65372e-01
       H -4.26466e+00 -1.25551e+01 -2.66970e+00
       O -8.23731e+00 -5.25124e+00 -7.48537e-01
       H -8.14733e+00 -6.76750e+00 -2.79621e-01
       H -8.28428e+00 -5.10479e+00 -2.44766e+00
       O -4.53308e+00 -1.21642e+01 -6.22977e+00
       H -5.82256e+00 -1.10011e+01 -6.63170e+00
       H -2.93352e+00 -1.12722e+01 -6.77473e+00
       O  8.30105e+00 -4.80040e+00 -6.31188e+00
       H  6.91448e+00 -3.94089e+00 -6.47335e+00
       H -7.45139e+00 -3.41735e+00 -6.76874e+00
       O  8.20998e+00 -9.51817e+00 -7.67310e+00
       H  8.65131e+00 -9.43571e+00 -9.72613e+00
       H  7.83167e+00 -7.70391e+00 -6.97422e+00
       O -4.51864e+00 -2.21972e+00 -7.63527e+00
       H -4.03001e+00 -2.23545e+00 -9.22862e+00
       H -4.51307e+00 -7.30282e-01 -7.09726e+00
       O -8.26383e+00 -9.84632e+00  6.22488e-01
       H  7.60084e+00 -1.11308e+01  2.04354e-01
       H -6.76090e+00 -1.07651e+01  1.66583e-01
       O -3.90074e+00 -2.57206e+00  6.85209e-01
       H -5.18414e+00 -3.93053e+00  4.97983e-01
       H -2.54909e+00 -3.73876e+00  4.63281e-01
       O -3.98286e+00 -1.25565e+01  1.30149e+01
       H -4.20681e+00 -1.46081e+01  1.36848e+01
       H -4.06552e+00 -1.24994e+01  1.13754e+01
       O -8.20393e+00 -5.17373e+00  1.31099e+01
       H -8.23256e+00 -7.26322e+00  1.35822e+01