192
# CELL(abcABC):   16.99620    29.43815    27.67315    90.00000    90.00000    90.00000  Step:           0  Bead:      25 velocities{atomic_unit}  cell{atomic_unit}
       O  3.58079e-04 -4.10328e-04  8.84783e-04
       H -4.83643e-03 -1.26365e-03 -5.20150e-03
       H -2.89038e-04 -3.09421e-03  6.05861e-04
       O  9.31352e-04  1.18287e-03 -7.83662e-04
       H -1.91658e-03 -1.81461e-03  2.44378e-03
       H -2.76619e-03  1.69675e-03  6.76523e-03
       O -1.04323e-03 -8.82597e-04 -9.83491e-04
       H -3.41374e-04 -3.40549e-03 -1.81898e-03
       H -3.41195e-03  2.07146e-03  5.05324e-04
       O -7.61784e-04 -1.22862e-03  1.77221e-05
       H  3.76018e-03  2.94052e-03 -1.82580e-03
       H -1.20883e-03 -3.52603e-04  9.81838e-04
       O -2.43536e-04 -1.78846e-03  4.04156e-04
       H  1.02615e-03 -2.56698e-03 -4.47039e-03
       H -1.83897e-03 -1.99998e-03  5.12896e-03
       O  3.59691e-04 -1.75975e-03 -1.11603e-03
       H -3.62195e-03 -4.86951e-03  4.88004e-03
       H  4.99101e-03  3.92309e-04 -8.65499e-04
       O  5.18389e-04  4.69579e-04 -1.92378e-03
       H  1.75212e-03 -7.86435e-03  1.62961e-03
       H  1.87655e-03  1.56060e-03  3.02770e-03
       O  3.42643e-04 -7.98811e-04 -7.45648e-04
       H  3.27081e-03  1.30840e-04  1.15982e-03
       H  1.29149e-03  6.67332e-03  8.95302e-05
       O -9.80110e-04  6.09829e-04  3.09975e-04
       H  4.52874e-03 -4.91653e-03  5.34136e-03
       H  2.96556e-03  2.11547e-03  2.68039e-03
       O  3.53372e-04 -8.91289e-04 -1.19572e-04
       H  5.19878e-03 -4.90790e-04 -4.55926e-03
       H  5.55545e-03  5.33792e-03  4.51487e-03
       O -2.74114e-03  7.69598e-04 -7.11479e-04
       H  2.81309e-03 -3.74897e-04  7.16380e-03
       H -7.15148e-03  3.90780e-03 -5.15720e-05
       O  6.81717e-04  1.08709e-03 -3.29401e-04
       H  2.82930e-03 -2.02682e-03  6.42585e-04
       H -4.26932e-03  5.24136e-03 -3.08522e-03
       O -1.07240e-03 -9.09117e-04  9.62624e-04
       H  8.10089e-04  2.75886e-04 -1.06981e-03
       H  2.55500e-03  3.53890e-03 -8.76763e-03
       O -2.01135e-04 -1.18272e-03  1.58934e-03
       H  2.85402e-03  1.28751e-03  1.39492e-03
       H  2.14732e-03  2.52184e-03  3.16313e-03
       O  5.29083e-04 -1.00515e-03 -1.17423e-04
       H  2.14500e-03  3.83929e-03  1.27289e-03
       H -8.42591e-04  1.53346e-03 -1.26998e-03
       O  1.73324e-03 -5.70207e-04  2.05221e-03
       H  5.46307e-03 -5.49387e-03 -3.67776e-03
       H  3.85605e-04 -1.65927e-03  2.45358e-03
       O  4.01389e-04 -2.26457e-03  2.21764e-04
       H -4.52802e-03  1.82667e-03  2.09835e-03
       H -1.07683e-03 -4.07566e-03 -8.32577e-04
       O  4.97760e-04 -1.30457e-04 -2.09587e-04
       H -3.18279e-04 -7.42903e-03  1.08915e-03
       H  6.54129e-04  4.03383e-03  4.26711e-03
       O -2.02582e-04  6.97366e-04 -7.75922e-04
       H  2.52967e-03 -5.45018e-04 -1.02076e-02
       H  5.26532e-03 -3.37045e-03 -4.17239e-03
       O  6.99175e-04 -9.51103e-04  1.72873e-03
       H  1.35958e-03  3.11929e-03  7.09744e-04
       H -5.44472e-03  3.91919e-03 -1.41996e-03
       O  1.69500e-04  6.70361e-04  4.27403e-05
       H  1.04670e-03 -1.46485e-03 -1.39740e-03
       H -2.11430e-03  3.75961e-03 -7.11957e-04
       O  5.25436e-04 -1.56299e-03  6.89598e-04
       H -1.06046e-03  2.91390e-03  7.68099e-04
       H -9.50857e-03 -3.06150e-03 -1.88625e-03
       O -1.44747e-03  1.15931e-03  6.53420e-04
       H -4.06535e-03  1.30495e-03 -6.65502e-04
       H  1.10523e-03 -3.73639e-03  1.22119e-03
       O -2.24500e-03 -2.20087e-04 -9.74504e-04
       H  9.49837e-04 -2.95511e-03 -1.17903e-03
       H -7.80109e-04  8.40105e-03  3.73106e-05
       O  4.60767e-04  4.04259e-05 -4.04579e-04
       H  6.27177e-03 -4.86192e-03 -2.97064e-03
       H  6.31808e-03  2.69507e-03 -6.58133e-04
       O -1.20578e-03 -8.81682e-04 -3.47950e-04
       H  4.92680e-03  8.69456e-03  2.35774e-03
       H  2.03150e-03  4.37331e-03  2.26086e-03
       O  1.56790e-03  1.49355e-04  8.09084e-04
       H  4.26013e-03 -1.99795e-03  4.90559e-03
       H -9.42061e-03  7.45892e-05 -1.27984e-03
       O  2.00370e-04 -1.56548e-03  4.46980e-04
       H  4.13989e-03  4.44760e-04 -6.85725e-03
       H -2.76663e-04 -5.77729e-03  2.46405e-03
       O  1.00392e-03  4.76809e-06 -1.68666e-04
       H -8.79004e-03  3.75523e-03  2.24077e-03
       H  2.04597e-03  1.19275e-03 -8.82021e-04
       O -7.04611e-04  3.95805e-04 -9.27714e-06
       H -6.01739e-04  6.59818e-03 -2.87656e-03
       H  9.06232e-04  4.22385e-03 -3.30587e-03
       O -1.30065e-03 -1.44838e-03 -1.02626e-03
       H  9.68432e-03  7.99000e-03  7.18387e-05
       H -1.97007e-03  3.31756e-04 -9.61449e-03
       O  1.03563e-03  6.50681e-04 -1.22958e-03
       H  7.65964e-03 -2.33825e-03  1.31324e-03
       H  9.31021e-04  2.19396e-03 -4.80927e-03
       O -4.65394e-04  1.63315e-03 -8.05000e-04
       H  7.82873e-03 -3.33219e-04  2.83527e-03
       H  1.87157e-03  2.17285e-03  3.32268e-03
       O  1.55338e-03 -1.22067e-03 -1.83060e-03
       H  3.49167e-03  8.43679e-04 -1.27088e-03
       H -4.50628e-03  1.05685e-03  2.16055e-03
       O -3.93960e-04 -7.44898e-04  2.07953e-04
       H  9.69051e-04 -3.66414e-03  3.59731e-03
       H -1.52841e-03  3.74294e-04 -2.78657e-03
       O  4.85702e-04 -1.24205e-03  2.27571e-03
       H  6.95396e-03 -9.12337e-05 -2.75635e-04
       H -4.27937e-03  2.96560e-03  3.06044e-03
       O -1.68714e-04 -7.91963e-04 -3.42734e-04
       H  1.70257e-03 -4.52904e-03 -3.41994e-04
       H  1.88537e-03  3.33451e-04  2.34670e-03
       O -7.92864e-04  3.97695e-04 -8.57888e-04
       H -5.01720e-03  5.20492e-04 -7.91471e-03
       H  4.76152e-03  3.68563e-03  5.00070e-03
       O  6.61025e-04 -2.63998e-04 -1.70686e-04
       H -4.02325e-03  3.71920e-03 -4.14763e-05
       H -6.44691e-03  1.37041e-03 -1.44796e-03
       O -1.17585e-03  1.10378e-03 -3.69778e-04
       H  3.95333e-03  2.22675e-04 -2.61559e-03
       H  2.49231e-03  2.95873e-03  5.69169e-03
       O  8.61350e-05  1.15136e-03 -1.49373e-03
       H -1.36747e-03 -4.10492e-03  2.15877e-03
       H  2.51986e-03 -7.47977e-03  5.24497e-03
       O  3.93387e-04  1.10708e-03 -1.35474e-04
       H -9.11296e-04  1.19109e-03 -3.91151e-03
       H  1.92633e-03 -1.29730e-03  2.93642e-03
       O -1.88819e-04 -1.03111e-03  3.81089e-04
       H -3.88546e-03  1.61745e-03 -6.43959e-03
       H  1.44095e-03  4.01477e-03  1.20712e-03
       O -1.29873e-03 -6.13537e-04  1.68220e-04
       H -1.56804e-03 -4.59716e-04 -4.68191e-03
       H  2.28859e-03 -6.84729e-03  2.87019e-03
       O -3.31117e-04 -3.79729e-05 -3.01639e-04
       H  8.95789e-04  4.35242e-04 -8.29256e-04
       H -6.63563e-04  4.74991e-03  1.51284e-03
       O -4.40731e-04 -8.87018e-04  8.79845e-04
       H  1.95891e-03  3.66350e-04 -3.12895e-03
       H  8.30276e-04  2.54234e-03  3.77323e-03
       O  1.14443e-03 -2.91375e-04  8.92046e-04
       H -2.69742e-03  1.90952e-03 -7.87366e-03
       H -6.11268e-04  2.35118e-03 -2.31855e-04
       O -1.21929e-03  1.44110e-03 -5.59531e-04
       H -3.83199e-03 -3.61940e-03 -9.60005e-03
       H -2.48814e-03 -6.61543e-03  7.61123e-03
       O  5.49667e-04  6.43505e-04 -1.77927e-04
       H  7.55112e-03  7.48857e-03  2.24805e-03
       H  6.17297e-03  2.69057e-03 -2.86415e-03
       O -8.92288e-04  8.26567e-05 -1.05007e-03
       H  9.68652e-05  4.08234e-03  4.89179e-03
       H -7.62016e-04  6.21470e-03 -3.10198e-03
       O  1.89138e-04  1.26429e-03 -1.54740e-04
       H  2.65587e-04 -4.79944e-03 -5.46081e-03
       H -6.36759e-03 -3.97189e-03  2.29952e-03
       O -1.99864e-03  3.65271e-04  1.20840e-03
       H  4.76444e-03  7.17397e-05  2.65957e-03
       H  6.63517e-04  1.60785e-03  1.95894e-03
       O -1.39829e-03 -8.47464e-04 -8.84255e-04
       H -2.00052e-03 -9.88996e-04  1.19347e-03
       H  5.11603e-04  5.87956e-03  2.10892e-03
       O  8.79205e-04  1.95970e-03  5.62824e-04
       H  2.27278e-03  5.81510e-03 -8.33032e-04
       H -4.77083e-03 -9.04598e-04  2.42437e-03
       O -7.55896e-04  1.87279e-04  1.20856e-03
       H  1.32002e-03  1.62496e-03  2.75889e-03
       H -5.18137e-04 -1.71043e-03  3.61339e-04
       O -1.23612e-03  1.34753e-03 -1.61632e-04
       H  4.02613e-03 -2.64063e-03  1.64351e-04
       H -1.38525e-03 -1.43968e-03 -3.38261e-03
       O  8.79962e-04 -8.86803e-04 -7.43396e-04
       H  1.30756e-03 -1.92543e-03  5.02083e-04
       H  1.07729e-03  6.28547e-03 -3.92279e-03
       O  9.30544e-04 -1.03169e-03 -6.02390e-04
       H -1.65770e-03  2.79450e-03 -1.87620e-03
       H  5.02136e-03  1.09772e-03 -1.10601e-03
       O -3.13676e-04  6.70284e-04  8.95271e-04
       H -4.80737e-04 -8.00745e-04 -1.49139e-04
       H  4.95659e-03  1.37995e-03  5.03971e-03
       O -2.19731e-03  1.51758e-03 -6.34752e-04
       H  7.12690e-03  7.32148e-03  4.81559e-03
       H  7.70972e-04  3.67772e-03 -3.25689e-03
       O -2.97095e-04 -1.81419e-03  1.17520e-03
       H  7.63135e-03 -2.99757e-03  5.99795e-04
       H -3.26564e-03  4.97701e-03 -3.58396e-03
       O  1.91120e-04 -2.88417e-04 -3.99311e-04
       H -1.63776e-03  4.35027e-03  4.98604e-03
       H -1.48500e-03 -5.17728e-04  5.21221e-03
       O -2.00872e-04 -5.58138e-04 -2.96682e-04
       H -2.91339e-03  2.91020e-03  4.06450e-04
       H  4.98542e-03  3.33617e-03  1.24742e-03
       O  2.25918e-04 -1.07542e-04 -2.56986e-04
       H -7.58723e-03 -1.87325e-04 -8.58611e-04
       H  1.57943e-03 -1.40493e-03  2.09515e-03
192
# CELL(abcABC):   16.99620    29.43815    27.67315    90.00000    90.00000    90.00000  Step:          10  Bead:      25 velocities{atomic_unit}  cell{atomic_unit}
       O -1.76900e-03 -1.47190e-04  9.79600e-04
       H -1.91102e-03  1.19456e-04  7.75944e-03
       H -4.44810e-03  5.30962e-03  3.49914e-03
       O  1.58362e-03  7.30025e-04 -1.93024e-04
       H -3.75007e-03 -4.88334e-03  7.20539e-03
       H -6.50849e-04  8.07127e-05  2.30828e-03
       O  8.35013e-04  1.74892e-03 -1.42043e-03
       H -3.33687e-03  6.42522e-03 -2.49629e-03
       H -4.08835e-03  1.11280e-03  7.21549e-03
       O -2.16027e-03 -1.29264e-03 -1.11235e-03
       H  2.99685e-03  1.24082e-04 -1.71083e-03
       H  4.68027e-03  2.25832e-03 -3.84919e-03
       O -5.00168e-04  1.08297e-04  1.12721e-04
       H  8.31320e-04 -1.71258e-03  3.07636e-03
       H  4.98977e-03 -4.35753e-03 -1.03915e-05
       O  1.27290e-03 -7.00353e-04  3.39552e-04
       H  3.48716e-03 -4.26718e-03 -1.36304e-03
       H -3.52042e-03 -1.38098e-03  3.97554e-03
       O  6.71263e-04  1.16969e-03 -1.24148e-04
       H -3.40070e-04  5.48015e-04  3.20468e-04
       H -4.04522e-03  3.08617e-04 -4.36711e-04
       O  1.38991e-03  1.32818e-03 -9.03299e-05
       H  7.16893e-03 -4.46892e-03  2.66268e-03
       H -4.14337e-03 -3.83571e-03  4.67132e-03
       O -5.51216e-04  2.60156e-04 -5.56245e-04
       H -3.81452e-03  6.02657e-04 -4.12584e-03
       H  2.01721e-04 -2.56805e-04 -1.16183e-03
       O  5.50693e-04 -1.51946e-04  1.64103e-05
       H  1.60542e-03 -1.17366e-03  2.69980e-03
       H -2.45039e-03  2.69835e-04 -2.78575e-03
       O -8.84729e-04 -8.44335e-04 -1.33879e-04
       H -4.57596e-03  1.36043e-03  1.83752e-03
       H -2.66047e-03 -1.72124e-04 -3.28232e-03
       O  2.21521e-04 -6.48108e-04  9.31536e-04
       H -7.47279e-04 -8.12757e-03 -1.38074e-03
       H  4.14011e-03  7.61865e-03 -3.52650e-03
       O  7.65158e-04  9.52613e-04  1.57307e-03
       H -7.59389e-03 -1.85771e-03  2.20966e-03
       H -3.28601e-03 -5.16195e-04  1.84939e-03
       O  5.37868e-04 -3.67063e-04  2.92769e-04
       H  3.02478e-03  3.61210e-04  5.69883e-04
       H  4.74861e-03 -2.43583e-03  2.74455e-03
       O  1.48752e-04 -2.14641e-04 -7.94320e-04
       H  3.50582e-03 -4.00695e-03  1.74939e-03
       H  2.00679e-03 -6.90125e-03  1.06732e-03
       O  1.61353e-04  3.31977e-05  5.67935e-04
       H -3.86701e-04 -2.43899e-03 -2.25052e-05
       H -1.70925e-03  1.96431e-03 -6.19923e-04
       O  3.91153e-04 -7.94628e-04 -1.32649e-03
       H  4.79440e-04  1.89040e-03 -1.53565e-03
       H -3.18300e-03 -2.43173e-04  2.53864e-03
       O -1.49827e-03 -7.53755e-04  2.60848e-04
       H  1.87053e-03 -3.56588e-03 -1.43804e-03
       H  5.14408e-04  4.19620e-05  3.94061e-03
       O  1.83216e-04 -2.15496e-03 -1.91758e-03
       H -4.62818e-03 -1.57341e-04 -2.60227e-03
       H  8.83897e-03  5.32665e-03 -2.86835e-03
       O -6.49611e-05  5.84918e-04 -1.15473e-03
       H  6.83186e-03  2.27132e-03 -4.01326e-03
       H -2.07113e-03  2.82729e-03  2.34219e-03
       O -4.01312e-05  6.46327e-04  2.64340e-04
       H  3.11877e-03  1.31181e-03 -1.05685e-03
       H -1.23398e-03  2.47871e-03  5.03943e-03
       O -2.18556e-03 -1.00179e-03  2.68292e-04
       H -4.64740e-03 -4.31121e-03 -3.42858e-03
       H -1.76360e-03 -5.78301e-04  4.29586e-03
       O  1.74125e-03 -3.89556e-04 -4.44928e-04
       H  5.76019e-03  7.34767e-04  3.55304e-03
       H -7.26467e-04  4.21301e-03  9.73248e-03
       O -5.89681e-04 -3.30978e-04  2.08911e-04
       H  2.13027e-03  1.61789e-03 -2.46698e-03
       H -1.68263e-03 -5.61080e-03  2.63471e-03
       O -7.50344e-04 -9.07352e-04 -6.47699e-04
       H  1.90165e-03  3.27005e-03  1.22069e-03
       H -5.19892e-03 -1.43302e-03 -5.28740e-03
       O -7.16112e-04 -8.82797e-04  2.60341e-04
       H -7.10354e-03 -2.07350e-03 -2.77852e-05
       H -8.20773e-03 -1.97771e-04 -5.07829e-04
       O -1.93708e-04  1.06697e-03  1.19739e-03
       H  7.58397e-03  1.59389e-03  5.30596e-03
       H -1.83564e-03  1.42347e-03  2.17895e-03
       O -7.64621e-04 -1.27934e-03  1.13261e-03
       H -3.04850e-03  5.08049e-04 -3.11690e-03
       H -3.62044e-03  3.27359e-03  2.49304e-03
       O -5.36608e-04 -1.63359e-03 -8.06550e-04
       H  4.54693e-03 -3.28917e-03  1.14686e-02
       H  3.09075e-04  3.23861e-03  4.56599e-03
       O -5.95721e-04  3.80290e-04  1.02823e-04
       H  5.32851e-03  2.19682e-03  6.89386e-03
       H -1.64679e-03 -3.11146e-03 -3.19614e-03
       O  2.44797e-06 -5.68478e-04 -3.71453e-04
       H -6.70418e-03 -2.33378e-03 -6.48807e-03
       H  2.23518e-03  2.02532e-03  4.82330e-03
       O -1.52161e-04  6.57069e-04  6.08733e-04
       H -8.05111e-04 -7.62365e-05 -4.20673e-03
       H -4.16614e-04  2.07984e-03 -3.05477e-03
       O  9.63085e-04  1.56797e-04 -5.42643e-04
       H -1.81479e-03  5.61432e-03  6.93363e-03
       H  4.11877e-03  2.71810e-03 -8.94373e-04
       O  7.32885e-04  4.45959e-04  6.38105e-04
       H  1.26510e-02  2.87680e-04 -2.24121e-03
       H -2.34776e-04 -1.68773e-03  2.66377e-03
       O  5.22699e-06 -2.30195e-04  8.82088e-05
       H  7.25616e-05 -5.42247e-03 -6.09405e-03
       H -4.72366e-03  3.92613e-03 -1.15981e-03
       O -6.95007e-04  3.98516e-04  1.26462e-03
       H  3.57164e-04 -1.86595e-03 -6.45503e-03
       H  1.73359e-03 -3.65380e-03 -8.60423e-04
       O -3.46438e-04  4.59441e-04 -1.56791e-03
       H  1.17029e-03 -8.44705e-03  3.21175e-03
       H -3.25983e-03  1.95941e-03 -2.40675e-03
       O  4.11345e-04  6.05767e-04  1.17621e-03
       H -2.84217e-03 -5.50627e-03  8.93631e-04
       H  3.07646e-03  7.10080e-04 -1.42647e-03
       O  5.63886e-04 -2.90119e-04 -2.95015e-04
       H  3.56745e-03  4.96509e-03  4.37975e-03
       H  9.66592e-04  3.33613e-03  4.72612e-03
       O  8.02818e-04  3.10330e-04 -8.62202e-04
       H -3.40228e-03 -8.54796e-04  1.36872e-03
       H  4.71068e-03 -4.70305e-03 -4.55141e-03
       O  4.63612e-04  1.37397e-03 -1.29261e-03
       H -5.48475e-03  1.35425e-03  2.35136e-03
       H -2.81509e-04  3.75846e-03 -2.10009e-03
       O  8.25028e-04 -9.21152e-04 -1.44551e-03
       H  3.78410e-03 -3.81733e-03  2.00416e-03
       H -1.00220e-03 -4.06322e-03  1.15234e-03
       O  7.66320e-05  3.75849e-04 -5.76482e-04
       H  4.59448e-03  4.03703e-03  2.79379e-03
       H  5.79267e-03  4.57633e-03  1.26154e-04
       O  3.78691e-04  4.40046e-04  8.07509e-04
       H -1.78154e-04 -5.20778e-03  8.80665e-05
       H -2.37819e-03  4.77442e-03 -2.93842e-03
       O -8.19949e-05 -3.63204e-04  5.14299e-04
       H  4.22307e-03  5.91760e-04  4.69497e-04
       H -1.80531e-03  3.43864e-03  3.35177e-03
       O -5.63935e-04 -9.12993e-04 -7.39525e-04
       H -5.03171e-03 -1.41280e-03 -4.69825e-03
       H -3.51778e-03 -2.25196e-03  2.15184e-03
       O -6.34348e-04 -1.32214e-03  1.96743e-03
       H  1.94251e-04  1.67895e-03 -1.75723e-03
       H  9.39887e-03 -2.45908e-04 -3.14173e-03
       O -3.70898e-04 -2.59094e-05  1.80229e-04
       H  3.34473e-03 -3.99800e-03  1.18737e-03
       H -3.90722e-03  1.89016e-03  7.72309e-04
       O -6.49328e-05 -3.97368e-04  1.46157e-03
       H -1.90906e-03  4.51206e-04  1.57617e-05
       H  1.00362e-03 -1.64010e-03 -4.43601e-03
       O -4.11596e-04  8.06818e-04 -8.87868e-04
       H  1.25431e-03  1.42671e-03 -4.22461e-03
       H  3.52570e-03  3.22668e-03  6.09404e-03
       O -6.31225e-04 -1.29534e-03  5.01333e-04
       H -6.77162e-04 -4.45772e-03 -1.53518e-03
       H  1.66746e-03  2.91430e-03 -6.55652e-04
       O -4.75311e-04  1.28417e-03  3.86436e-04
       H -9.89428e-04 -4.43944e-03  4.10835e-03
       H -1.63182e-03 -5.83062e-05 -3.67851e-04
       O -1.24661e-04  1.28527e-04  5.27854e-04
       H -9.48612e-04  5.25998e-04  1.36226e-03
       H  3.40851e-03 -2.38614e-04 -9.93324e-04
       O  6.28479e-04  3.71526e-04  2.65447e-04
       H -2.31248e-03  6.56229e-04 -1.35574e-03
       H -7.34391e-03  7.95380e-03  6.84879e-03
       O  7.20330e-04 -2.57547e-04 -1.20391e-03
       H -9.86989e-04  7.92285e-04 -4.56978e-03
       H -1.07792e-03 -1.08798e-03 -8.03413e-04
       O  2.45460e-04  1.00275e-03  7.01572e-05
       H  2.77679e-03 -3.02833e-03 -3.06918e-03
       H -4.51021e-04 -7.27085e-03  5.14546e-04
       O -3.40020e-04  6.12443e-04 -1.84885e-03
       H  4.92503e-03 -3.77084e-03 -5.42353e-03
       H -2.61452e-03 -7.00206e-03  4.54504e-03
       O  4.70578e-04  3.19636e-05  1.12180e-03
       H  4.80398e-03  2.24725e-03 -2.94463e-03
       H  1.82925e-03  1.99353e-03 -1.07018e-03
       O  1.17022e-03 -2.96675e-04  1.52731e-04
       H  1.21525e-03 -3.05162e-04 -7.70080e-04
       H -3.80166e-03  5.43031e-03  2.00545e-03
       O -6.81871e-04 -3.54769e-04 -3.94018e-04
       H -1.70331e-03  5.21638e-03  5.16894e-03
       H  2.29018e-03 -3.92718e-04  6.32315e-03
       O  5.08764e-04 -1.07686e-03  5.97010e-04
       H  2.39587e-03 -1.93340e-03  7.72715e-03
       H  5.69939e-03  6.31762e-03 -3.67892e-03
       O -2.50953e-04 -1.45928e-04 -2.20487e-04
       H  8.35055e-03  5.64228e-03  4.76166e-03
       H  7.05673e-04 -1.28593e-03 -4.31165e-03
       O -3.02798e-06  5.04871e-04  2.20376e-04
       H -7.35281e-03  2.43888e-03  7.95722e-03
       H  3.04516e-03  1.17661e-03  1.59381e-03
       O  5.45500e-04  1.97457e-04 -1.98403e-03
       H  2.74591e-03  3.92350e-04 -2.85843e-03
       H -4.07063e-03  2.13837e-03 -3.24639e-03
192
# CELL(abcABC):   16.99620    29.43815    27.67315    90.00000    90.00000    90.00000  Step:          20  Bead:      25 velocities{atomic_unit}  cell{atomic_unit}
       O  1.24652e-04  4.89846e-04 -3.77430e-04
       H -8.19241e-04  2.20316e-03  9.44920e-04
       H  7.34316e-04 -4.48742e-03 -6.59700e-04
       O  2.09639e-04 -3.76850e-04  2.52946e-03
       H -9.81704e-04  8.42203e-03 -4.29452e-03
       H -4.04775e-03  2.64557e-03 -1.60708e-03
       O  1.14873e-03 -1.85447e-03  1.28440e-04
       H  1.43969e-03 -8.87639e-03 -4.75438e-03
       H -3.74386e-03  1.83799e-03 -4.18635e-03
       O  1.64832e-04 -5.95748e-04  1.00975e-03
       H -1.16971e-03  3.42185e-03  1.53762e-03
       H  5.75054e-03 -3.09749e-03 -4.55716e-03
       O -3.35241e-06  1.87162e-03 -4.19748e-04
       H -8.53734e-04  6.16014e-03 -2.30636e-03
       H -1.86220e-03 -6.21100e-04  2.97793e-03
       O  8.58837e-04  2.69169e-04 -1.45999e-03
       H -6.66664e-03  4.11540e-04  1.81913e-03
       H  5.83188e-04  5.92651e-03  2.92918e-03
       O -7.66342e-05 -2.64257e-04  4.82363e-04
       H -1.03919e-03 -1.61439e-03 -1.03279e-05
       H -4.54597e-03  2.01698e-03  5.38121e-05
       O -5.66500e-04  6.69437e-05 -5.01241e-04
       H -1.63277e-03 -3.37029e-03 -1.26653e-03
       H -4.31439e-03 -7.64384e-04  5.10689e-03
       O -1.43735e-05  1.60655e-03 -1.32650e-03
       H  9.94843e-04  1.29837e-03  1.31597e-03
       H  5.87306e-03 -1.53375e-03 -1.46013e-03
       O  4.05773e-04  9.15224e-06 -5.67980e-04
       H -3.06985e-04 -3.12150e-03  3.82703e-03
       H -5.02798e-03 -2.65685e-03  4.93889e-03
       O  6.77128e-04  2.57827e-04 -2.31701e-04
       H  7.19466e-04 -3.47589e-03 -3.33393e-03
       H  2.25485e-03  1.23987e-04 -1.04642e-03
       O -4.21422e-04  2.53735e-04  8.65791e-04
       H  4.76845e-03 -1.44304e-03  1.52551e-03
       H  3.47217e-03 -5.28542e-03  3.02901e-03
       O -8.10551e-04 -8.10504e-04  4.35128e-04
       H  7.45237e-04  1.92145e-03 -6.39368e-03
       H -3.42840e-04  1.27704e-03 -2.34655e-03
       O -3.16697e-04 -1.06087e-04 -1.53058e-03
       H  1.20519e-03 -9.02641e-04  7.64751e-04
       H  2.43130e-03  5.93875e-03 -4.36979e-03
       O  1.58589e-03 -7.28709e-04 -2.88033e-04
       H  3.00890e-03  5.11859e-04 -1.66158e-04
       H  3.34781e-03  6.91823e-03  2.01603e-03
       O -4.74466e-04 -8.61259e-04 -9.08607e-04
       H  4.54537e-03  8.74009e-04 -4.04405e-03
       H  7.25146e-04 -2.23200e-03 -2.10818e-03
       O -4.01704e-04  5.72411e-04  1.99066e-03
       H -4.32555e-03  1.34085e-03  2.42231e-03
       H  3.43082e-03 -9.27800e-04 -6.68474e-03
       O -4.90149e-05  3.46364e-04  3.59296e-04
       H -1.61172e-03  4.59958e-03 -3.15471e-03
       H -1.02199e-03 -1.02258e-03  1.74721e-03
       O  4.68156e-04 -9.10362e-04 -3.41978e-05
       H  4.47310e-03 -2.89577e-03  1.43603e-03
       H  2.04727e-03 -1.21470e-03 -2.18549e-03
       O  1.68224e-03 -2.36084e-03 -1.79594e-03
       H -4.28622e-03  5.75448e-03 -1.24293e-03
       H  1.99171e-04  1.30273e-03 -4.96857e-03
       O -3.38181e-04 -1.56471e-03 -1.67000e-03
       H -5.86512e-03  6.69834e-04  1.53656e-03
       H -2.80176e-04 -2.64648e-03 -6.99499e-03
       O  5.79745e-04  1.08138e-03  1.53012e-03
       H -1.77587e-04 -4.69606e-03  3.18437e-04
       H -3.08865e-04  5.02392e-03 -2.11082e-03
       O -1.08884e-03  9.52257e-04  1.12426e-04
       H  1.98202e-03  3.04587e-03 -4.01174e-03
       H -8.94225e-04 -1.78258e-03 -1.56742e-03
       O  4.91619e-04  1.41995e-03 -6.78871e-04
       H  4.31919e-05 -6.22414e-03  8.78528e-03
       H -6.97503e-04 -4.18055e-03 -9.77430e-04
       O  9.66772e-04 -1.01283e-03 -7.35807e-04
       H -5.16025e-03  4.05776e-03  7.03545e-03
       H -2.91433e-03 -4.46524e-03 -1.15648e-03
       O  1.19582e-03  7.37277e-04  4.75664e-04
       H -5.26973e-03 -2.17316e-03  2.17274e-03
       H -1.00378e-03 -2.76231e-03  5.03908e-05
       O  2.00660e-04  1.84499e-03 -1.00749e-03
       H  1.22158e-03 -1.79741e-03  3.24233e-03
       H  2.19743e-03 -5.15486e-03  8.34733e-04
       O -6.31130e-04  1.27906e-03 -1.91750e-03
       H -2.00552e-03 -1.81701e-03  8.08099e-03
       H -4.69224e-04 -5.04494e-04 -2.83048e-03
       O -5.90869e-04  6.77697e-04  7.46928e-04
       H  4.33466e-05 -6.79528e-03 -1.89049e-03
       H  4.71887e-03  8.83905e-04 -1.08109e-03
       O  1.90470e-03  3.60744e-04 -1.37935e-03
       H -1.66826e-03  1.03020e-03  5.29129e-03
       H  3.23963e-04  6.67767e-03  1.81138e-03
       O  8.60734e-04  2.08367e-04  1.10160e-04
       H  2.91454e-03  1.25246e-03 -2.44021e-03
       H -3.42706e-03 -1.05466e-03 -5.84113e-03
       O  5.41744e-04 -1.85259e-03  5.06033e-04
       H  3.24789e-03 -3.50613e-03  2.06615e-03
       H  8.31073e-03  1.22488e-04  3.38005e-03
       O  3.13444e-04  4.53076e-04 -1.43082e-03
       H -1.36566e-03 -2.79314e-04  6.04269e-04
       H  7.93025e-04 -2.79129e-03  4.58970e-03
       O  5.24674e-05 -5.28238e-04  1.49833e-04
       H -6.09002e-03  2.53822e-03  3.28015e-03
       H  1.51715e-04 -8.04399e-04  6.25442e-04
       O -9.88632e-04 -1.48457e-04 -1.53274e-03
       H  3.14131e-03  3.45786e-03  9.87323e-04
       H -9.96887e-04  2.74114e-03  3.61324e-03
       O  2.73033e-04 -5.26739e-04 -1.85953e-05
       H -1.31899e-03 -6.33047e-03  6.52074e-03
       H -6.73924e-04  2.65621e-03  5.67744e-03
       O  1.48779e-03  9.83017e-04 -5.37210e-04
       H  2.34097e-04 -3.34725e-03 -7.43476e-03
       H  1.45261e-03 -3.91989e-04  3.02834e-03
       O -3.24998e-04  8.29731e-05 -1.09226e-03
       H -1.29422e-03 -1.60446e-03 -4.42400e-04
       H  5.36249e-04  6.12079e-03  2.82031e-03
       O  6.13975e-04 -7.04264e-05 -8.60065e-04
       H  4.42948e-03  1.56156e-03 -1.61904e-03
       H  1.39470e-03  4.53924e-03 -1.70240e-03
       O  1.44952e-03  6.27584e-04 -4.90279e-04
       H -6.26343e-04 -4.94291e-03 -1.94334e-03
       H  5.38348e-03  1.35206e-03  1.63639e-03
       O  2.71496e-04 -7.32027e-04 -5.96896e-04
       H  7.73951e-03 -7.44897e-04  9.09696e-04
       H  1.42832e-03  4.56107e-04  9.09500e-06
       O -1.11683e-03 -4.36685e-04  3.47985e-05
       H  2.68300e-04  1.78999e-03  4.34442e-03
       H  1.66951e-03  3.23369e-03  7.09023e-04
       O  1.18822e-04  5.25687e-05  1.15047e-03
       H -1.12317e-03 -3.88867e-03 -3.86905e-03
       H -2.01601e-03  5.48928e-03 -7.28015e-04
       O  4.25563e-04 -8.53461e-04  1.75877e-03
       H  8.03849e-04  7.58874e-04 -1.07939e-03
       H  7.37282e-04  2.48660e-03  1.05764e-02
       O  3.93710e-04 -1.23492e-03 -4.95297e-04
       H  1.26869e-03 -2.47805e-03  5.73918e-03
       H -6.58386e-04  3.22512e-05  1.94098e-03
       O -1.35864e-04  8.74694e-04  3.71933e-04
       H -3.30031e-03  6.27819e-03  1.76294e-03
       H -1.80003e-03 -1.06341e-03 -1.29254e-03
       O -5.66476e-04 -6.50186e-04 -1.03416e-03
       H  3.88796e-03  3.58211e-04  4.40812e-03
       H  5.68762e-03  2.22093e-03 -1.44152e-03
       O -1.38360e-03 -5.61895e-04  3.53416e-04
       H -4.90175e-03 -6.26435e-04 -3.81652e-03
       H -2.41791e-03  3.03366e-03 -2.97992e-03
       O  3.56595e-04  4.32493e-04  1.65808e-03
       H -2.99651e-04  1.34492e-03 -1.48657e-03
       H -5.15191e-03  5.54683e-03  1.69581e-03
       O -1.46196e-03 -3.99029e-04  3.88866e-04
       H -6.57872e-03 -5.00531e-03 -3.41341e-03
       H  3.27980e-04 -5.30914e-03 -1.14982e-03
       O -1.13529e-03  1.49273e-04 -1.01073e-03
       H -1.67970e-03  5.40276e-03 -4.02436e-03
       H  3.80418e-03  7.35426e-04 -6.13553e-04
       O -1.10685e-03  4.59356e-04  3.66097e-05
       H -7.18908e-03 -9.95088e-04  3.73216e-03
       H -7.48135e-03  3.54902e-03  8.78164e-04
       O -9.48029e-04 -5.49846e-04  1.25202e-03
       H -2.03276e-03 -2.63474e-03 -2.92302e-03
       H -3.95503e-03 -3.98591e-04  6.54935e-03
       O  3.22797e-04 -1.99211e-03  1.14519e-04
       H  6.16689e-03 -1.97678e-03 -1.66041e-04
       H -1.92741e-03 -9.01854e-04  1.85861e-04
       O  5.22800e-04 -3.08646e-04  1.03394e-03
       H  2.43947e-03  3.79203e-03 -1.18474e-03
       H -1.41114e-03 -3.40167e-03  5.21805e-04
       O  4.83025e-04 -1.19929e-05 -3.73648e-04
       H -1.06683e-03  3.18556e-03 -7.61693e-04
       H  1.75849e-03  3.84327e-03  3.54368e-03
       O  2.99808e-04  1.15530e-03  1.58678e-03
       H -1.87967e-03  7.34190e-04  3.77802e-03
       H  8.27258e-03  3.48566e-03  4.16268e-03
       O  1.34769e-03  7.86035e-04 -5.73361e-04
       H  1.36792e-03 -1.49255e-03  7.32253e-03
       H  9.06245e-04 -2.35199e-03 -2.15196e-04
       O  7.22057e-04 -6.32584e-04  3.25464e-04
       H  5.38659e-03  3.48445e-03  2.80473e-04
       H -6.98013e-03  4.91194e-03  4.89187e-04
       O  8.62124e-04  2.79496e-05  4.77024e-04
       H  2.55375e-03  6.53023e-03  2.86198e-03
       H  3.94012e-03  8.85256e-04 -4.73602e-03
       O -8.25675e-05 -1.71777e-03 -4.91629e-04
       H -4.75680e-03 -9.09215e-04 -5.39142e-03
       H  7.26412e-04  2.76643e-03  4.23727e-03
       O  4.96303e-04  1.46982e-04  6.88412e-05
       H -5.49695e-03 -6.41173e-03 -2.73243e-03
       H -6.27367e-03 -2.90254e-03 -3.65549e-03
       O -4.66351e-04 -3.47107e-04  1.06306e-03
       H  1.22838e-03  3.18040e-03 -1.49984e-03
       H  1.55161e-05 -1.54225e-03  3.10075e-03
       O -6.78400e-04 -1.86219e-04 -1.24258e-03
       H  1.24937e-03  4.83815e-03 -1.06567e-03
       H -2.98620e-03  2.18640e-03  2.34204e-03
192
# CELL(abcABC):   16.99620    29.43815    27.67315    90.00000    90.00000    90.00000  Step:          30  Bead:      25 velocities{atomic_unit}  cell{atomic_unit}
       O  1.82919e-03 -1.27747e-03 -2.17044e-03
       H -3.89637e-03 -2.20109e-03  6.63348e-03
       H -2.08776e-03 -3.08043e-03 -9.01641e-04
       O -1.87387e-04  4.85754e-04 -1.28365e-03
       H -2.45340e-03 -4.01567e-03  5.12013e-03
       H  4.34236e-03 -4.96532e-03 -3.12116e-03
       O  5.26507e-04 -3.13975e-04 -1.18391e-04
       H -7.65263e-05 -5.46120e-03 -1.80299e-03
       H -2.72259e-03  1.15882e-03 -2.71854e-03
       O -4.45629e-05  5.09261e-04  5.74552e-04
       H  4.34029e-03 -2.24374e-04  1.91671e-03
       H  8.54345e-05 -7.14103e-03  3.08170e-03
       O  1.00793e-03 -7.23809e-05  7.16365e-05
       H -8.36962e-04 -2.97690e-03 -5.97115e-04
       H -1.76001e-03 -1.82257e-03 -2.11540e-03
       O -8.12069e-04  1.61733e-03  4.34115e-04
       H  3.12516e-03  2.75894e-03  6.43372e-03
       H -2.27953e-03 -3.06344e-03 -1.09985e-03
       O  4.25521e-04  7.06776e-04  9.57461e-04
       H  1.93690e-04 -6.99413e-04 -2.62335e-03
       H  2.34340e-03  1.63614e-03 -1.15531e-03
       O  6.29861e-04 -5.22218e-04  7.33016e-04
       H -1.07590e-03 -4.81261e-03  2.13258e-03
       H  3.38190e-03  5.15373e-04  6.71841e-03
       O  1.09445e-04 -7.55775e-04  8.07407e-05
       H -2.94214e-03  2.74486e-03 -3.63500e-03
       H -5.15672e-03 -9.91358e-03  1.32263e-03
       O -1.53314e-03 -1.29964e-03  3.80147e-04
       H  3.92603e-03 -9.66660e-04  2.89698e-04
       H  4.25496e-04 -5.10456e-03  1.34941e-03
       O  1.12316e-03  2.32195e-06  1.90241e-04
       H -3.28725e-03 -5.87682e-03 -9.08681e-03
       H  9.55263e-03  4.10608e-03  2.19094e-03
       O  6.39314e-04  8.72377e-04  1.87965e-03
       H -7.58348e-04  7.21648e-03 -4.38255e-03