192
# CELL(abcABC):   16.99620    29.43815    27.67315    90.00000    90.00000    90.00000  Step:           0  Bead:      26 velocities{atomic_unit}  cell{atomic_unit}
       O -5.63950e-04 -1.07132e-03  6.19580e-04
       H  3.37581e-04 -3.64480e-03 -6.31385e-04
       H  9.53581e-03  1.07662e-03  2.30360e-03
       O  1.01398e-03  5.72143e-04  2.21947e-03
       H -1.32724e-04  1.57015e-03  5.28419e-04
       H  3.81410e-04 -9.28222e-04 -4.44025e-03
       O  2.18533e-04  5.66285e-04 -2.52452e-03
       H -2.15253e-04 -1.47661e-03  7.01214e-04
       H  5.21038e-04  4.55986e-03  6.21750e-04
       O -1.49306e-03 -1.79349e-03  3.72256e-04
       H  2.78370e-03 -2.23958e-03  1.98761e-04
       H -7.12864e-04  9.14577e-04  2.51942e-03
       O  8.03413e-04  9.97505e-04  2.08458e-04
       H -2.49260e-03  1.51488e-03 -2.62388e-03
       H  6.54095e-03 -1.75416e-03 -5.29359e-03
       O -4.79785e-04  3.47444e-04 -8.41070e-04
       H -1.49832e-03 -4.77118e-03  9.69509e-04
       H -5.82531e-03 -1.39273e-04  2.82901e-03
       O -1.85288e-03 -8.77271e-04  1.68896e-03
       H -1.76702e-03 -1.12263e-03  1.77925e-03
       H -3.66366e-03 -2.29767e-03  5.25895e-04
       O -3.17329e-04 -4.64821e-04  9.79588e-04
       H  5.07312e-03 -3.06066e-03 -5.61521e-04
       H -2.56107e-03 -2.91758e-03  1.46756e-03
       O -4.50198e-04 -7.41216e-04  1.28037e-04
       H  2.58469e-03 -3.38537e-03  1.21100e-03
       H  2.15429e-03 -6.71353e-03 -2.18520e-03
       O  1.20394e-03  2.46106e-04  1.03989e-03
       H  3.86227e-03  2.82673e-03  5.48238e-04
       H  3.38092e-03 -6.35545e-03  3.62783e-03
       O  1.02530e-03 -8.10960e-04  7.50029e-04
       H -1.38471e-04 -3.71805e-03  5.36330e-04
       H -1.61819e-03  2.02753e-03 -3.98058e-03
       O -1.91114e-03  5.73868e-04 -8.20022e-04
       H -2.67321e-03 -1.21918e-03 -3.14478e-03
       H -2.03894e-04  8.67110e-03 -2.37957e-03
       O  5.39609e-04 -1.67576e-03  6.12835e-04
       H  5.51388e-03  2.35972e-03 -1.17026e-03
       H -1.97235e-03  6.65282e-03 -2.10719e-03
       O  1.10792e-03 -5.54935e-04 -8.27874e-04
       H  2.36228e-03  1.65653e-03  2.88054e-03
       H  1.04759e-03 -2.58015e-03 -1.67376e-03
       O  1.28118e-03 -3.64331e-04  4.82691e-04
       H -8.07648e-04  3.76739e-04  8.73335e-04
       H -6.65083e-03  2.70286e-03  4.09568e-03
       O -1.27492e-03 -1.16823e-03  7.97153e-04
       H  3.79499e-03  4.22825e-05 -3.64650e-03
       H -1.47783e-03 -3.65767e-03  2.70540e-03
       O -2.35273e-04  5.28396e-04 -1.99629e-05
       H -1.26802e-03 -5.33830e-03  2.87904e-03
       H  2.81974e-03  5.15993e-03  5.01374e-04
       O -1.18428e-03 -6.69492e-04  1.40586e-03
       H -2.01069e-03  6.13880e-03  2.13193e-03
       H  5.62031e-03  4.45621e-04  4.86486e-03
       O  3.84991e-04 -9.12130e-04 -1.23786e-03
       H -5.16954e-03 -4.05860e-04 -5.07290e-04
       H -6.11832e-03 -1.35392e-03 -2.83593e-03
       O  3.07582e-04  1.32504e-03  6.66153e-04
       H  4.00216e-03  7.14120e-03  3.03109e-03
       H -3.86426e-03  9.98586e-04  2.13015e-03
       O  7.70552e-04 -7.27992e-05 -1.30575e-03
       H  2.89979e-03  7.19191e-03  1.38749e-03
       H -2.12556e-03  1.09128e-03 -3.52573e-03
       O -9.60840e-04  7.47964e-04  1.45023e-04
       H -5.52983e-03 -4.14181e-03  5.27116e-03
       H  3.63938e-03 -1.60233e-03 -2.45868e-03
       O -1.70255e-04  1.62725e-03  4.68820e-04
       H  4.86417e-03 -1.57379e-03 -5.99382e-04
       H -5.11531e-03 -2.29893e-03  5.33259e-03
       O -3.99522e-04  2.49197e-03  8.31789e-04
       H  4.39374e-04 -2.80277e-03 -6.91950e-04
       H  2.05962e-03  2.45149e-03  3.07160e-03
       O  1.20303e-03  1.15434e-03  1.05544e-03
       H -2.81957e-04  7.43357e-03 -1.65085e-03
       H -7.46784e-04 -5.26857e-03 -2.59178e-03
       O -9.57925e-04 -9.31065e-06 -2.14563e-04
       H -8.75013e-03  2.88325e-03  1.31218e-03
       H -5.74768e-03  1.29758e-03 -2.52540e-03
       O  9.06322e-04  3.17371e-04 -2.14968e-04
       H  2.33307e-03 -4.32363e-03  1.07923e-03
       H  9.23422e-04 -3.53060e-04 -2.06104e-03
       O -2.17599e-03 -8.82972e-04 -6.36083e-04
       H -7.56321e-03 -1.53693e-03  1.65042e-03
       H  5.93336e-03 -1.28693e-03  1.20237e-03
       O  3.17392e-04 -9.59890e-04 -2.29475e-04
       H  2.54139e-03 -1.54475e-03  6.61208e-03
       H  1.70652e-03  2.70419e-03 -3.01679e-03
       O  5.53254e-04  4.95595e-04  1.69609e-03
       H  2.84174e-03  2.27981e-03  1.26503e-03
       H -4.57729e-03 -2.55141e-03 -2.79681e-03
       O -2.06532e-03  4.06962e-04  4.11064e-04
       H -4.33203e-04 -4.21506e-03 -5.03513e-04
       H  3.68975e-03 -2.37897e-04  2.97091e-03
       O  8.55980e-04 -2.13618e-04  2.17799e-04
       H -4.00821e-03 -1.67778e-03  1.69155e-03
       H -1.65510e-03  5.03209e-03  1.12823e-03
       O  7.04044e-04 -5.38277e-04 -1.78347e-03
       H -6.35079e-04  3.41503e-04  3.98323e-03
       H -7.38583e-03  2.86971e-03  3.69303e-04
       O  4.58735e-05  5.37877e-04  1.07257e-03
       H  1.55278e-03  1.26756e-03  1.15255e-03
       H  2.34912e-03  3.84365e-03 -1.34790e-03
       O  2.47558e-03 -1.58988e-04 -6.43675e-05
       H -1.33921e-03  1.91518e-03 -1.64554e-03
       H -2.25674e-03  5.75180e-03  3.93061e-03
       O  3.85123e-04 -4.50475e-04 -1.20324e-05
       H  2.06134e-03 -6.22692e-03 -7.61185e-04
       H -1.14860e-03  3.25910e-03  3.20402e-03
       O  2.35295e-04 -7.07237e-04  4.84707e-04
       H -9.17381e-03  9.34454e-04  2.88126e-03
       H  3.99658e-04  1.94773e-03 -4.91532e-03
       O -1.03101e-03 -5.63092e-05 -2.04614e-05
       H -2.69343e-03 -2.05279e-03 -3.01791e-03
       H  2.11241e-04  1.01380e-03  3.26449e-03
       O -1.76245e-04 -1.03376e-03  1.19487e-03
       H -5.46931e-03 -2.17689e-03 -1.06109e-03
       H  4.95734e-03  1.48393e-03 -8.46357e-04
       O  8.60937e-04  1.93636e-03 -7.06747e-04
       H  1.29257e-04  1.59255e-03  1.41832e-03
       H  1.25718e-03 -2.03966e-03 -3.71054e-03
       O -5.59203e-04  1.07626e-03 -3.32310e-04
       H -4.25863e-03  6.43244e-03 -7.79955e-03
       H  5.41937e-04  5.14682e-03 -1.00827e-03
       O  6.22109e-04 -1.22755e-03 -3.88417e-04
       H  4.51183e-03 -1.83169e-03 -5.48451e-04
       H  3.36049e-03  8.37482e-04  1.09166e-03
       O  1.05902e-04  2.89803e-04 -5.30202e-04
       H  6.79504e-04 -3.93415e-03 -4.76172e-03
       H -3.78106e-03 -2.18123e-03 -8.99436e-05
       O  5.67230e-04  1.67774e-03  5.49674e-04
       H  5.86683e-04 -5.25108e-03  1.90005e-03
       H -7.52868e-04  2.51611e-03  5.57091e-04
       O -1.65551e-03 -7.03940e-04  1.29683e-03
       H  1.27432e-03 -2.97237e-03 -2.50654e-03
       H -3.14996e-03  1.55691e-05  4.63846e-04
       O  5.98346e-04 -9.47712e-05 -4.70434e-04
       H  2.15199e-03 -2.06358e-04 -8.94596e-04
       H  1.23494e-03  4.44728e-03 -4.54130e-03
       O -5.64697e-06 -6.55929e-05  1.06367e-03
       H  1.71389e-03  1.79532e-03  5.42109e-03
       H  2.60825e-03  1.40735e-03  2.32431e-03
       O  5.65771e-04 -9.13806e-04  1.64405e-03
       H  3.10782e-03 -2.72856e-03 -1.36980e-03
       H  2.48056e-03 -2.15590e-04 -3.53600e-03
       O -1.80231e-03  2.40470e-04  2.00331e-03
       H  9.36819e-04  1.70455e-03  1.15366e-03
       H -1.54454e-03 -4.14393e-03 -4.28725e-03
       O  1.28837e-04  6.32693e-04 -2.55319e-05
       H  2.33662e-03  7.29153e-04 -9.42607e-04
       H -4.72965e-03  1.94654e-03  7.39605e-04
       O  3.47736e-04 -2.86795e-04 -1.06611e-04
       H -4.67134e-03  7.93030e-04  4.02950e-04
       H  2.93165e-04 -4.52719e-04  5.41478e-03
       O  3.51729e-04 -1.69890e-04  3.98936e-04
       H -1.09826e-03  2.22872e-04 -1.99149e-03
       H  1.56594e-04  9.00184e-04  1.38326e-04
       O  1.45225e-04  8.17082e-04  3.39765e-04
       H  3.29113e-03 -8.65799e-03 -1.37778e-03
       H  3.66089e-03  4.60015e-03 -2.63643e-03
       O  5.85035e-05 -2.13352e-03 -1.35409e-03
       H -3.74902e-03  3.81500e-03  3.41953e-04
       H  1.19735e-03  3.63710e-03  1.18485e-04
       O  1.03994e-03  9.34353e-04  8.21392e-04
       H -1.23334e-04 -1.86575e-03  2.01359e-03
       H -1.36100e-03 -1.37059e-03  2.59349e-04
       O  1.51404e-03  1.19515e-04 -1.37307e-03
       H  3.70648e-03  3.96781e-03  3.50278e-03
       H -1.21604e-03 -4.80782e-03  3.22591e-03
       O -1.38481e-03 -3.37597e-04 -2.10409e-04
       H  5.48256e-03 -4.88033e-03 -7.59647e-04
       H -5.88575e-03 -2.73139e-03 -1.36341e-03
       O -6.71348e-04 -1.45381e-03  1.30286e-04
       H -3.16522e-03  2.56628e-03 -3.74438e-03
       H  2.64807e-04 -2.86246e-03 -6.62682e-03
       O -5.35535e-04  1.40537e-03 -3.80507e-04
       H -2.04528e-03 -4.54291e-03  3.86574e-03
       H -2.54881e-04  9.66670e-03  1.31387e-03
       O -1.03210e-03  3.16721e-04  6.17703e-04
       H  2.26402e-03 -1.32814e-03  3.98636e-03
       H -1.84893e-04  3.27970e-03 -5.52126e-03
       O  9.78818e-04  1.22973e-03 -5.45210e-04
       H  1.02551e-03  2.20087e-03  3.36762e-03
       H -6.53753e-03 -1.37296e-04  1.99203e-03
       O -5.00459e-04 -2.18179e-04  2.57028e-04
       H  6.46448e-04  7.17155e-03  2.49820e-04
       H -8.19125e-04  3.11349e-03 -6.80631e-03
       O  7.75224e-04  9.64475e-04 -1.41869e-03
       H -2.04603e-03 -2.35356e-03  3.40657e-03
       H  2.91612e-03  5.03518e-03  7.60508e-03
       O  1.84493e-03 -5.75076e-05 -8.34070e-04
       H -3.32869e-03 -1.75681e-03  2.71831e-03
       H -1.73604e-03  2.13457e-03  4.40193e-03
192
# CELL(abcABC):   16.99620    29.43815    27.67315    90.00000    90.00000    90.00000  Step:          10  Bead:      26 velocities{atomic_unit}  cell{atomic_unit}
       O  4.07864e-04  3.97200e-05  9.67704e-07
       H  2.34299e-04 -5.54393e-03  9.59021e-03
       H -6.74582e-04  1.92648e-03  4.55267e-04
       O -3.39442e-04  8.02808e-04  6.84448e-04
       H  3.87643e-03 -3.33366e-04 -3.94770e-03
       H  2.13626e-03 -2.95571e-03 -4.13349e-03
       O -6.81272e-04  9.29506e-04 -1.49172e-03
       H  2.08733e-03 -3.60834e-03 -4.49210e-03
       H -2.22425e-03  6.35038e-03  2.07973e-03
       O -4.35708e-04  2.53747e-04 -6.75340e-06
       H  4.30085e-03 -3.54311e-03 -2.90787e-03
       H  9.77074e-04 -2.28243e-03  4.89709e-03
       O -1.59897e-03 -1.65139e-03  1.14775e-03
       H  4.22583e-04  1.68426e-03  1.05314e-04
       H  1.26937e-03  9.87687e-04  1.19650e-03
       O -1.02742e-04  7.26615e-04  6.49146e-04
       H  4.63797e-03  1.93926e-04  8.65572e-04
       H -5.86722e-04  5.54630e-03 -1.00801e-03
       O -8.62017e-04  1.62682e-03  7.02717e-04
       H  1.27858e-05  1.36476e-03  3.91511e-03
       H -2.37547e-03 -1.56421e-03  1.71269e-04
       O  6.38015e-04  1.45520e-04  1.31027e-03
       H -8.09752e-03  3.72750e-03  4.43953e-03
       H -5.29154e-03  3.81454e-04  6.37937e-03
       O -2.28441e-04 -1.08199e-03 -2.76664e-04
       H  2.73008e-03 -2.72270e-03  1.17915e-03
       H -1.15731e-03  3.28190e-03  1.06272e-03
       O  2.46326e-05  2.75114e-05  2.49375e-03
       H  4.83222e-03 -3.99499e-03 -2.95739e-03
       H  1.81042e-05  5.13242e-03  1.58883e-03
       O  2.22007e-04  1.42160e-03 -2.04176e-04
       H  6.69810e-04 -1.16523e-04  2.68923e-03
       H  3.02991e-03  2.18078e-03  6.81783e-03
       O  6.91025e-04  1.60753e-04 -1.72974e-04
       H  1.60471e-03  3.40675e-04 -1.45635e-04
       H -4.53881e-03  3.21186e-03  5.01787e-03
       O -9.39988e-04  4.29009e-04 -4.53445e-04
       H -2.99921e-03  4.75188e-04 -4.81028e-03
       H -7.62926e-04  8.69068e-03  1.79919e-03
       O -3.17283e-04 -1.40729e-03 -9.20239e-05
       H  1.79745e-03  5.62262e-03 -5.36498e-04
       H  2.24864e-03 -1.07140e-03  3.46071e-03
       O -9.63945e-05 -4.58867e-04  4.26606e-04
       H -2.67597e-03  1.78081e-03  6.75320e-03
       H  1.26261e-03 -9.05701e-04  4.49075e-03
       O -5.16534e-04 -5.21725e-04  2.41290e-05
       H -6.44051e-04  6.80448e-03  1.26906e-03
       H  1.60771e-03 -8.09084e-04 -1.30366e-03
       O -4.42992e-04  3.67921e-04 -2.50788e-04
       H -1.89687e-04  3.29844e-03  2.57364e-03
       H -4.31113e-03 -6.87209e-04 -2.66849e-03
       O  9.43255e-04 -2.16843e-04 -5.46836e-04
       H -5.70752e-03 -8.33105e-03 -1.35018e-03
       H -4.46830e-03  1.60350e-03 -2.92600e-03
       O  1.12507e-03  1.07867e-04 -4.84446e-04
       H -6.35955e-03 -2.31973e-03 -3.98464e-03
       H  1.28644e-03 -4.28149e-03 -2.21742e-04
       O -8.36195e-04 -6.60255e-04  3.57297e-04
       H  2.02886e-03 -5.93530e-04  4.57341e-03
       H  3.60973e-03  7.97075e-04 -2.41048e-03
       O -1.40366e-03  1.10513e-04 -5.65422e-04
       H -1.39825e-03 -1.17005e-04 -3.28421e-03
       H  5.07889e-03 -2.38867e-03 -9.22764e-03
       O  3.23907e-04 -2.52231e-03  1.65245e-03
       H  3.90356e-03 -3.98801e-03 -9.27916e-04
       H -8.11420e-04 -2.66753e-03 -1.19122e-03
       O -2.89776e-04  2.18887e-04  4.39333e-04
       H  7.77619e-03 -8.23475e-04 -4.86882e-04
       H -3.23726e-03 -3.76387e-03 -2.75599e-03
       O -5.73451e-04  4.40614e-05  6.38400e-04
       H  4.89776e-03 -1.62296e-04  3.89209e-03
       H -1.73699e-03  1.38224e-03  4.42802e-03
       O -8.88601e-05 -1.20708e-04 -7.26167e-04
       H  1.67930e-03  6.67417e-03  1.97365e-03
       H  4.32601e-03 -2.57375e-04  1.43100e-03
       O -6.55921e-04 -9.63806e-04  1.93901e-04
       H  1.45014e-03 -1.33466e-03 -4.96482e-03
       H -6.41294e-04 -4.59710e-05  3.59146e-03
       O  1.31235e-03 -3.60856e-04  5.14023e-04
       H  9.66756e-04 -2.10434e-03 -2.79073e-04
       H  1.95154e-03  9.39870e-04  1.10880e-03
       O -1.38903e-04  2.10510e-04  8.77337e-04
       H  1.76413e-03 -1.63906e-03 -2.08070e-04
       H  1.46339e-03 -5.82059e-03 -1.90118e-03
       O -5.44549e-04  8.66154e-05 -7.09132e-04
       H -2.27000e-04 -2.71086e-03 -2.01828e-03
       H  8.10645e-04  2.73071e-03  2.21465e-04
       O  7.77933e-04  1.10493e-03 -7.12953e-04
       H  8.85302e-04  7.33441e-03 -2.68982e-03
       H -4.14203e-03  8.07720e-04 -4.14128e-04
       O  6.66131e-04  1.00572e-03  4.14149e-04
       H  5.39338e-03 -4.06323e-03 -2.97868e-03
       H -4.45831e-03 -3.49011e-03  2.91952e-03
       O -7.15821e-04  3.16395e-04  1.70700e-03
       H  3.27781e-03 -2.93927e-03 -6.76121e-04
       H -1.47185e-03  1.17835e-03 -6.28558e-04
       O  4.85617e-04  5.82065e-04  1.55073e-03
       H -1.92656e-03 -2.44218e-03  9.58611e-04
       H -1.21725e-03  2.20424e-03 -2.53186e-03
       O  7.57113e-04 -1.07495e-03 -3.63210e-04
       H  2.49289e-03 -2.79899e-03  5.85736e-03
       H -5.90426e-03  2.85934e-04 -1.11821e-03
       O  3.36581e-05 -5.74580e-04  4.27436e-04
       H  4.06630e-03  3.46015e-04  1.49695e-03
       H  4.36429e-04  3.11690e-03  1.87358e-04
       O -7.17547e-04 -1.93495e-03  2.43057e-04
       H  4.79562e-03 -4.60389e-03 -2.95863e-03
       H -6.72954e-03 -2.36397e-03 -2.80350e-03
       O  2.49862e-03 -1.13568e-03  1.92354e-03
       H  4.86737e-05 -3.58728e-03  6.48235e-04
       H  2.11001e-03  1.77598e-03  2.90043e-03
       O -4.38548e-04  2.79546e-04  8.25662e-05
       H -3.08864e-03 -6.91641e-03 -1.05629e-04
       H  6.31406e-03 -4.75960e-04  4.75012e-03
       O  6.83848e-04  1.89058e-03 -1.83948e-03
       H -5.62378e-03  8.98418e-03 -6.11317e-03
       H -2.70636e-03 -2.21613e-04 -2.08050e-03
       O  1.16080e-03  7.86251e-04  1.34549e-03
       H  1.47440e-03 -3.00012e-03 -2.83288e-03
       H  6.33789e-04  3.49279e-03  2.07802e-03
       O -2.67290e-03 -8.97700e-04 -9.84973e-04
       H  3.86170e-03  5.11283e-03  1.27274e-03
       H -4.05029e-03  5.54910e-03  3.19450e-03
       O -5.39734e-05 -2.05499e-04 -6.58469e-04
       H -1.61900e-03  1.29949e-03  4.89680e-03
       H  6.50143e-04 -8.87414e-04 -3.87310e-03
       O -2.16367e-04 -7.71261e-04  1.11079e-04
       H  2.04923e-03  1.31942e-03 -4.40738e-03
       H  1.96319e-03  2.79930e-03  3.66447e-03
       O -6.95875e-04  6.33941e-05  4.27816e-04
       H -8.70831e-04 -2.31133e-03  1.75687e-03
       H  3.14662e-03 -2.87298e-03  7.76620e-04
       O  5.65060e-04 -1.23595e-03 -4.78133e-04
       H -4.12916e-03  4.52229e-03 -3.92085e-03
       H -7.90786e-04 -3.48761e-03  7.20562e-03
       O -1.09020e-03 -4.21908e-04  6.15691e-04
       H  4.93420e-03  2.50669e-03 -2.91455e-03
       H -1.77209e-03 -6.34417e-04 -7.92865e-04
       O  4.43588e-04 -1.09875e-03 -1.89074e-03
       H -3.42179e-03 -1.07490e-03 -6.65167e-04
       H -2.05601e-03 -6.76145e-04  2.99513e-03
       O -1.15226e-03 -1.44003e-03 -8.88096e-05
       H  2.15762e-03 -2.69792e-03 -3.94888e-03
       H -4.07531e-03  2.63708e-04  9.31037e-04
       O -9.66741e-04  2.41224e-04  1.72338e-03
       H  6.48359e-04 -3.26858e-03 -4.95588e-03
       H -3.13805e-03 -1.18051e-03  5.18087e-03
       O  6.63260e-06  1.11358e-03  2.25265e-06
       H -2.19779e-03  2.73072e-03 -3.96774e-03
       H  4.10512e-03 -2.56851e-04 -8.04698e-04
       O  1.01455e-03 -1.10138e-03 -7.02885e-04
       H -4.69321e-03  3.12709e-03 -1.18217e-02
       H  1.21190e-03  4.70881e-03 -4.25378e-03
       O  3.81748e-04 -2.43224e-04 -6.65474e-04
       H -1.15523e-03  2.09515e-03 -2.65809e-03
       H  1.44386e-03  6.50355e-04 -4.25193e-03
       O -1.30705e-03 -1.16854e-03 -5.26319e-04
       H -1.00463e-03  4.68895e-03 -1.47935e-03
       H  1.55209e-04  1.52345e-03  7.52409e-03
       O  1.84437e-03 -7.75331e-05  4.01743e-04
       H  3.49966e-03  9.49341e-04  1.20477e-03
       H -1.80332e-03  3.38746e-03  4.60751e-03
       O  1.62338e-04 -9.94774e-04 -9.73087e-05
       H  2.07083e-03  1.20682e-03 -9.88595e-04
       H -3.11904e-03 -5.97522e-03 -1.57939e-03
       O -2.28331e-04  6.26782e-04 -8.43899e-04
       H -4.53550e-03  5.28695e-03 -1.13388e-03
       H -3.51688e-03  5.20235e-03 -1.90761e-03
       O  2.49501e-04  2.80914e-04  1.16189e-03
       H  3.60725e-03  2.19995e-03 -6.67542e-04
       H  6.30417e-03  1.09222e-03  3.18368e-03
       O  2.63919e-04 -1.19488e-03  3.06494e-05
       H  1.73647e-03 -1.93546e-03 -8.97973e-03
       H -3.86572e-03 -1.09579e-03  3.01122e-03
       O -1.20298e-03  5.75127e-04  8.60051e-04
       H  6.09940e-03  6.46814e-03 -5.66294e-03
       H -1.85207e-03  4.87366e-03  7.68607e-04
       O -1.36699e-03  6.43180e-04 -8.53024e-04
       H  7.97955e-03  4.28604e-03  2.28468e-03
       H -4.72787e-04  9.75577e-05  2.04325e-03
       O  2.77729e-04 -6.73187e-05  5.34043e-04
       H -2.12134e-03 -2.25409e-03  5.19821e-04
       H -5.01784e-03  3.60266e-03  2.59065e-04
       O -8.79817e-05  3.79967e-04 -2.12989e-05
       H -5.94169e-03 -2.00501e-03  4.61673e-04
       H -5.50228e-04  5.24294e-05 -3.93804e-03
       O  3.69817e-04 -1.99594e-04  4.62071e-05
       H  5.24123e-03  6.93648e-03  1.18580e-03
       H  6.96773e-03 -8.50576e-04 -1.53122e-03
       O  1.09378e-03 -6.55853e-04  9.05477e-05
       H -7.12353e-03  3.86989e-03 -3.94563e-03
       H  2.26523e-04  1.41672e-03 -1.86288e-03
192
# CELL(abcABC):   16.99620    29.43815    27.67315    90.00000    90.00000    90.00000  Step:          20  Bead:      26 velocities{atomic_unit}  cell{atomic_unit}
       O -6.97441e-04  6.09378e-04 -3.26509e-04
       H -3.48249e-03  3.05766e-03  2.50295e-03
       H -8.08775e-04  1.17486e-02 -4.63187e-03
       O  3.48907e-04 -6.54296e-04 -1.11059e-03
       H -6.24833e-03 -9.05519e-03 -1.74340e-03
       H -4.44437e-03  3.75968e-03  3.45855e-03
       O  7.67023e-04 -1.13686e-04  1.44894e-03
       H -2.90976e-03  3.39499e-03 -1.85718e-03
       H  7.89928e-04 -5.78277e-03 -3.23644e-03
       O  1.47942e-03 -4.32187e-04  1.12852e-03
       H  2.62924e-03 -4.98556e-03  6.77815e-04
       H  1.67896e-03  1.42521e-03  7.14753e-03
       O  4.06635e-04  4.36745e-04 -1.35351e-03
       H  9.86314e-04 -2.06919e-03  6.58302e-04
       H -1.37052e-03 -1.50480e-03  4.09531e-03
       O  5.12768e-04  1.07208e-03 -1.13875e-03
       H  2.32869e-03 -1.11371e-03 -2.16346e-03
       H -5.56843e-03  4.16259e-03 -1.90840e-03
       O -3.32220e-04  1.34087e-03  1.03723e-03
       H -9.91673e-04 -4.79681e-03 -8.12808e-04
       H -3.79655e-03  5.85289e-03 -1.92809e-03
       O -2.09922e-04 -4.14001e-04  6.30669e-04
       H  2.51741e-03  4.59017e-03 -5.30653e-03
       H -2.29339e-03 -8.56034e-03 -4.34553e-04
       O -1.04940e-03  8.06980e-04  6.45113e-04
       H  4.11509e-03  5.58539e-03 -3.72327e-03
       H -1.62517e-03  8.83847e-04 -3.61329e-03
       O -5.70881e-04  1.36479e-03  3.00005e-04
       H -4.83729e-03 -3.72363e-03 -4.84093e-03
       H  3.61226e-03 -1.15431e-03  1.72919e-03
       O  9.91445e-05  2.21767e-04 -8.68856e-04
       H -3.35387e-03 -2.91727e-03 -7.29088e-03
       H  1.03050e-03 -4.15172e-03  8.95910e-04
       O  7.10859e-04  3.84120e-04 -9.58387e-04
       H -1.90964e-03 -4.48581e-03 -1.55005e-03
       H  1.83553e-03  2.52812e-03 -3.16856e-03
       O -5.25151e-04  5.39515e-04 -9.72609e-04
       H -2.88205e-03 -3.87560e-03 -3.78401e-03
       H  9.85678e-04 -6.97195e-03 -2.90814e-03
       O -8.02745e-04  1.16004e-03 -4.57666e-04
       H -2.21715e-03  3.93890e-03  1.23221e-03
       H -3.31387e-03  5.17420e-04 -4.56496e-03
       O  8.63648e-04  1.44775e-03 -6.13967e-04
       H -2.22334e-03 -9.20361e-04  1.07973e-03
       H  1.60640e-03  1.32790e-03 -1.29285e-03
       O  3.70276e-04  5.97601e-04 -1.65237e-04
       H -1.45003e-03 -1.91485e-03  3.59091e-03
       H -2.24173e-03  3.12091e-03 -8.63114e-03
       O -4.22947e-04 -8.92851e-04 -1.37022e-03
       H -4.34403e-03  4.89426e-03  7.82868e-04
       H -1.28577e-03  6.85537e-03  1.71434e-03
       O  2.21523e-04  1.26261e-03  1.36878e-04
       H  3.89935e-03  7.73907e-04 -9.15045e-04
       H  6.82420e-03 -3.78926e-03 -2.75855e-04
       O -6.56624e-04  1.31364e-03  8.93683e-05
       H -2.71760e-03 -5.49325e-03 -2.13247e-03
       H  5.08557e-03  4.42499e-03 -5.65404e-04
       O -5.99125e-04  4.07639e-04 -1.70452e-04
       H  2.86660e-03 -5.38059e-04 -1.86093e-03
       H -2.49284e-03 -6.00643e-03 -2.15724e-03
       O  1.36350e-03 -2.93139e-04  2.01253e-05
       H  3.50902e-03  5.27880e-03 -1.69144e-03
       H -3.55069e-03 -7.82157e-04  1.96197e-03
       O -2.02009e-03  1.19604e-04  6.57116e-04
       H  1.87679e-03  1.41460e-04 -2.84154e-03
       H -2.33295e-03 -2.63896e-03  5.12574e-03
       O -3.20272e-04  1.10149e-03  6.91147e-04
       H  1.57300e-03  8.17382e-04 -5.42209e-03
       H  4.76378e-03  7.74627e-04 -1.11444e-03
       O  3.65833e-04  1.38272e-04 -2.41061e-04
       H -5.27955e-03  5.01682e-03  1.15041e-03
       H -3.12011e-03 -2.73521e-03 -5.80580e-04
       O -4.22727e-04 -9.87203e-04 -6.55052e-04
       H -6.42426e-03 -9.29283e-03  3.05023e-03
       H  1.82600e-03  2.26625e-03 -3.73818e-03
       O -2.15723e-04  1.34177e-03 -8.77638e-04
       H  2.56384e-03  8.89882e-04 -3.39286e-03
       H  8.62568e-03 -1.75293e-03 -2.47193e-03
       O -1.77112e-05  1.02644e-03 -9.45389e-04
       H  3.64107e-03 -2.16616e-04 -4.60199e-03
       H -7.65668e-03  2.68011e-03  3.09103e-03
       O -1.28099e-03 -6.31550e-06  1.15433e-03
       H  1.24895e-03 -8.33547e-04 -2.74675e-03
       H -6.34845e-03 -2.22772e-03 -4.13049e-03
       O  1.85616e-04 -7.02322e-04 -3.98333e-04
       H  2.38693e-03  8.56157e-04  1.75439e-02
       H  3.94834e-03 -4.28912e-03  3.28464e-03
       O -4.61125e-04  2.58870e-04  1.64769e-05
       H -8.99749e-05  8.47155e-03 -9.94893e-04
       H  3.22846e-03  1.56915e-03 -1.08147e-03
       O  9.85721e-04  4.09514e-04 -5.81235e-04
       H -3.19129e-03  1.84933e-03 -5.45087e-04
       H  1.19731e-03  4.54385e-03 -2.92645e-03
       O -6.35712e-04  1.67989e-03 -6.11863e-04
       H  5.54045e-03 -7.71241e-03 -2.73215e-03
       H  7.16468e-03  4.90211e-03 -2.19155e-03
       O -3.04489e-04  7.04060e-04 -8.71728e-04
       H  4.70474e-03  4.70721e-03  1.88761e-03
       H -5.27916e-03  3.65127e-03  2.17735e-03
       O  6.99046e-04  7.44480e-04  4.07326e-04
       H -9.88218e-04 -5.24352e-04 -3.17674e-03
       H -1.91061e-03  6.67372e-03 -5.69706e-03
       O -9.73070e-04  8.93129e-05 -8.88615e-05
       H -4.58496e-03 -5.81542e-06 -2.22288e-03
       H -3.81407e-03  3.13530e-03 -3.95355e-03
       O  1.80488e-05  1.05234e-03  1.20541e-03
       H  4.07055e-03 -1.45697e-03 -5.23331e-03
       H  1.88206e-03  7.30883e-04  4.90292e-03
       O -9.64510e-04  8.53496e-05 -6.43906e-04
       H  2.95827e-03  1.92560e-03  6.05799e-03
       H  8.27278e-04  1.05231e-03 -1.78888e-03
       O  4.16498e-04  5.38645e-04  7.13127e-04
       H  1.29201e-03 -7.58841e-03 -1.22640e-04
       H -4.84603e-03 -4.25118e-03 -5.40900e-03
       O  4.85071e-04  2.02328e-03 -5.91801e-04
       H  5.51524e-04  9.36430e-04 -4.97685e-03
       H -1.87292e-03  4.45339e-04 -4.35114e-03
       O  1.49370e-03  2.89960e-04  3.25251e-04
       H -4.44606e-03  1.29035e-03 -3.66338e-03
       H  4.95755e-03 -5.47562e-04 -6.03658e-03
       O  1.19244e-03  8.27901e-04  5.20907e-04
       H  1.60443e-04  3.13613e-03 -3.91213e-03
       H  8.84720e-03 -6.42870e-05  6.57310e-04
       O  6.13078e-04  6.61804e-04 -3.91304e-04
       H  1.98275e-03 -8.99545e-03 -1.29813e-03
       H -1.59246e-03 -7.21387e-03 -2.00257e-03
       O  8.99456e-04  8.44005e-04  3.71186e-04
       H  4.47021e-03 -2.27164e-03 -1.81952e-03
       H  1.30932e-03 -1.52815e-03 -5.29188e-03
       O -1.45574e-03 -4.77785e-04  6.16991e-05
       H -3.23610e-03 -1.02652e-03  4.38509e-03
       H -5.41255e-03 -1.33692e-03 -6.00860e-03
       O -7.51511e-04 -1.20400e-03 -3.21715e-04
       H  3.70100e-03  1.20758e-03  1.88134e-03
       H  1.97722e-03  3.56308e-03  2.92769e-03
       O  1.42126e-03  5.03469e-04 -3.42703e-05
       H -2.30746e-03  1.28917e-03 -2.78026e-03
       H  4.56097e-03 -1.53241e-03  4.76512e-03
       O  4.44148e-04 -1.60725e-04 -1.20801e-03
       H  1.35904e-03 -1.44587e-03 -7.08146e-03
       H  4.55114e-03 -4.00066e-03 -3.82105e-03
       O -9.77900e-04  5.95694e-04 -3.26741e-04
       H  4.72605e-03 -3.12592e-03  3.22468e-03
       H -1.63047e-03 -2.03831e-03 -1.71666e-04
       O  2.23774e-06 -8.18261e-04  1.46084e-03
       H  1.26445e-03  6.08490e-03  1.28190e-03
       H -1.14227e-03  1.19427e-04 -1.83571e-04
       O -6.13995e-04 -1.61180e-05 -1.16620e-03
       H  8.68983e-04 -4.22922e-03  7.24243e-03
       H  2.77364e-03  5.21143e-04  6.83560e-03
       O -6.18875e-04 -5.08807e-04  1.73919e-04
       H -5.94599e-05  6.77961e-03 -4.23650e-03
       H -2.73971e-03  9.13487e-04  1.97988e-03
       O -1.43026e-03  6.49454e-04  9.68358e-04
       H  1.75254e-04  4.53320e-03 -7.82915e-04
       H  9.71553e-04 -4.74205e-04 -4.12581e-03
       O  1.32334e-03 -9.34821e-04  6.80559e-05
       H -1.27177e-03  4.12642e-03  1.88611e-03
       H  5.28362e-04  2.28520e-03  1.78816e-03
       O  8.74127e-04  4.03065e-04  1.30491e-04
       H  8.15918e-04  4.34513e-04  1.21500e-03
       H -7.50377e-03 -1.54388e-03  1.36777e-04
       O  3.32668e-04  5.34046e-04 -3.94125e-04
       H  2.98046e-03  3.28168e-03  4.68632e-04
       H  6.03863e-03 -1.54114e-03 -3.73338e-03
       O  1.27672e-04 -3.49053e-04  6.84079e-05
       H  3.17156e-03 -1.16644e-03 -8.28921e-03
       H  3.20770e-03 -4.41044e-04 -3.05700e-03
       O -7.94069e-04  1.22993e-03  5.87051e-04
       H  3.39962e-03 -7.62880e-03  6.62750e-04
       H  2.35234e-03 -4.05144e-04  3.30198e-04
       O  3.86878e-04  1.12795e-03 -2.51047e-04
       H -2.26023e-03  4.79830e-03 -4.79034e-03
       H  2.50827e-03 -4.25653e-03  3.55544e-03
       O -1.24560e-03  3.27164e-04 -1.24938e-04
       H  2.35033e-03  3.04698e-03  1.50601e-03
       H -2.83064e-03 -1.68543e-03  1.91850e-03
       O  7.64075e-04  6.83238e-04 -1.00666e-03
       H -2.16404e-04 -5.01029e-04  7.49988e-04
       H  4.41197e-03 -2.89979e-03  3.91619e-03
       O -1.53011e-03  7.50880e-04 -4.88325e-04
       H -5.45101e-03  1.71422e-03  2.50760e-03
       H -2.95968e-03  3.52146e-04 -3.20564e-03
       O  1.63289e-03 -5.44219e-04 -2.00644e-03
       H  3.36524e-03  3.36009e-03  3.50735e-04
       H  3.10142e-03 -1.08575e-03  2.10347e-03
       O -9.91189e-05 -6.49474e-04  3.36758e-05
       H -4.05716e-03  1.39600e-03 -3.80603e-03
       H  4.16972e-04 -2.09876e-04 -3.49449e-03
       O  1.00901e-03  9.75480e-04 -1.77844e-04
       H  2.66141e-03 -9.58699e-04 -8.58946e-03
       H  6.10241e-04  1.11247e-03  1.59382e-03
192
# CELL(abcABC):   16.99620    29.43815    27.67315    90.00000    90.00000    90.00000  Step:          30  Bead:      26 velocities{atomic_unit}  cell{atomic_unit}
       O -1.84415e-03  1.53929e-03 -4.01987e-04
       H -1.81149e-04 -1.27021e-03  1.39300e-03
       H  5.53158e-06 -2.32374e-03 -4.14257e-03
       O -5.50895e-04  3.42989e-04  1.79891e-03
       H -1.64608e-03  2.56916e-04  5.87278e-03
       H  7.55671e-04  1.31429e-03  2.63160e-03
       O  1.25200e-03  1.23421e-04 -9.09449e-04
       H -3.60261e-04  6.76269e-03 -1.73835e-03
       H  2.31327e-04 -3.20500e-03 -4.27177e-03
       O  4.05127e-04  1.07217e-05 -5.95199e-04
       H -2.09998e-03  4.68476e-03 -9.03742e-04
       H -8.51797e-04  3.80961e-03 -7.48385e-04
       O  1.70089e-03  5.17754e-04  3.24171e-04
       H -8.16956e-04  4.70316e-03  1.91350e-04
       H  7.78624e-03 -2.08471e-03 -2.39306e-04
       O  3.46907e-04 -5.61597e-04 -8.77141e-04
       H -2.35636e-03  1.82290e-03  7.37613e-05
       H  1.07624e-03 -1.68374e-03 -3.86980e-03
       O -1.80400e-04 -1.19677e-03  1.23368e-03
       H  4.74967e-04  3.62627e-03 -4.18927e-03
       H -8.22684e-04  3.97733e-03 -2.06892e-03
       O -2.55063e-04  3.87156e-04 -1.06523e-03
       H -4.46249e-04  9.56095e-04 -2.41291e-03
       H -1.22575e-03 -4.19017e-03  5.15502e-03
       O -1.28290e-04  6.30759e-04 -9.64282e-04
       H  5.87586e-03  5.49637e-04  8.80766e-04
       H -6.11016e-03  7.79958e-04 -5.05873e-03
       O  5.80628e-04 -2.39804e-03 -1.16879e-03
       H -1.31275e-03  3.29011e-03 -8.44922e-04
       H -3.33079e-03 -2.61352e-03 -4.46491e-03
       O -1.42811e-03 -2.65891e-04  3.82919e-04
       H -3.72396e-03 -3.35779e-04 -1.66933e-04
       H -6.17746e-04 -3.05699e-03 -3.23227e-03
       O  1.18171e-04  1.75108e-03  1.76065e-04
       H  7.54464e-03 -1.28870e-03 -3.42368e-03