192
# CELL(abcABC):   16.99620    29.43815    27.67315    90.00000    90.00000    90.00000  Step:           0  Bead:      19 velocities{atomic_unit}  cell{atomic_unit}
       O  9.07882e-04 -3.39577e-04  5.13605e-04
       H -2.47194e-03  6.92888e-04  4.41285e-05
       H -1.03530e-03  2.63159e-03 -3.01492e-03
       O -1.52223e-03 -7.30353e-04  1.05672e-03
       H  1.07500e-03  2.63877e-03  3.34076e-04
       H -3.94655e-03 -8.84290e-04 -8.61643e-04
       O  7.92356e-04  2.59967e-04 -9.74984e-04
       H -1.44519e-03 -3.12737e-04 -2.99044e-03
       H -4.33357e-03 -9.69517e-04 -2.57457e-03
       O -4.29318e-05 -1.01104e-03  1.70285e-03
       H  5.66558e-03 -8.01942e-03  6.13154e-03
       H  2.96264e-03 -1.68132e-04 -4.03829e-04
       O -9.40882e-04  1.07687e-03 -2.25775e-03
       H -2.98619e-03 -2.98554e-03 -1.79763e-03
       H -4.97096e-03  1.85332e-03 -1.03893e-03
       O  3.98736e-04 -4.60294e-04 -1.89568e-03
       H  8.14519e-04 -1.78097e-04 -1.30627e-03
       H  5.42978e-03 -1.43885e-03 -1.16570e-03
       O  3.60618e-04 -1.57387e-03 -7.76052e-04
       H -3.28153e-03  3.03826e-03  5.98847e-03
       H -4.99038e-03  1.95220e-03  1.14605e-03
       O  8.87885e-04 -1.33198e-04  6.78675e-05
       H  9.62483e-05  1.28894e-03  2.08034e-03
       H  3.39215e-03  1.15366e-03 -3.79939e-03
       O -8.00354e-04 -1.64344e-03 -4.58358e-04
       H -3.16524e-04 -2.39496e-03  5.31218e-04
       H -5.57069e-03 -2.93085e-03 -3.17887e-03
       O  5.12800e-04  1.33665e-03  6.30353e-04
       H  1.13468e-03  1.57642e-03  2.51003e-03
       H -2.80326e-03 -2.37616e-03 -9.88620e-05
       O  1.61660e-03  6.56529e-04  5.84157e-04
       H  5.75584e-03 -2.42911e-04  9.02809e-04
       H -5.01941e-03 -2.59098e-03  3.93123e-03
       O -3.14628e-04  3.28340e-04 -1.55961e-04
       H -2.00493e-03 -1.85043e-03 -3.34892e-03
       H  4.67651e-03 -2.84359e-03  1.00458e-03
       O -1.01799e-03  1.38390e-04 -2.72656e-04
       H  2.94122e-03 -2.18755e-03  2.66286e-03
       H  7.94902e-04  2.34848e-03 -2.50037e-03
       O  5.77917e-04 -9.96251e-04 -6.61295e-04
       H -5.10584e-04 -7.01127e-04 -4.78473e-03
       H -3.76709e-03 -1.34354e-03 -3.76765e-04
       O  1.01551e-03  7.80252e-04 -1.39818e-03
       H -3.32890e-04 -7.07424e-04 -6.93023e-03
       H  1.61276e-03 -1.09408e-03 -6.24281e-03
       O -5.48116e-04  2.88456e-03 -7.02683e-04
       H -2.85035e-03 -1.29991e-03 -1.61169e-03
       H -1.30963e-03 -5.39253e-03  3.68370e-03
       O  8.30794e-04  1.39081e-03 -1.43940e-04
       H  5.21339e-03 -3.06768e-03  1.60237e-04
       H -1.41325e-03  8.49298e-04 -1.59380e-04
       O  1.93731e-04 -1.04465e-03  4.18752e-04
       H -1.96379e-03 -5.47888e-03 -3.88500e-04
       H  3.43108e-03  5.06607e-03  6.67900e-03
       O  5.12019e-04  1.07432e-03 -2.66931e-05
       H -9.56747e-04 -6.77892e-04 -3.43638e-03
       H -2.43500e-03  2.24060e-03  7.62870e-03
       O -1.21416e-04  1.34472e-03  6.00325e-04
       H  1.37488e-03  6.84007e-03  7.62796e-04
       H  1.91347e-03 -2.66375e-03  1.77029e-03
       O -9.80286e-05  7.06990e-04 -2.84688e-04
       H -6.98790e-03 -2.43916e-03 -3.56577e-03
       H  6.63532e-03 -1.49946e-04  2.06916e-03
       O  1.78098e-04  8.01478e-04 -6.03209e-04
       H -4.16266e-03  2.01657e-03 -4.57193e-03
       H  1.43544e-03  6.34014e-03 -1.44149e-03
       O  3.59286e-05 -1.08670e-03  1.25054e-03
       H  4.58377e-03  5.56627e-03  3.16458e-04
       H -4.96203e-03  2.04309e-03  1.61549e-03
       O -1.77232e-04  1.12292e-03  1.45522e-03
       H -4.95814e-03 -9.68910e-04  2.94432e-03
       H -5.43474e-03  6.59227e-03 -4.17792e-04
       O -1.80617e-03 -3.46579e-05 -7.88075e-04
       H  4.38123e-03  7.05030e-04 -1.59383e-04
       H  2.10384e-03 -4.90423e-03  5.18545e-03
       O -7.06128e-04  2.36207e-05  4.58732e-04
       H -4.21515e-03 -2.29872e-03 -1.32902e-03
       H  6.29296e-04 -1.04582e-03  1.22044e-03
       O -1.16004e-04  2.85507e-04  5.82812e-04
       H -1.81435e-03  3.23034e-03  1.42710e-03
       H  2.41653e-04  4.39428e-03 -4.38020e-04
       O  1.28489e-04 -7.86084e-04 -3.91349e-04
       H -3.06275e-03 -2.24945e-03 -4.04378e-03
       H -5.64949e-04 -3.93518e-03 -1.72293e-03
       O  1.21289e-03 -3.46646e-04  4.10658e-04
       H  1.08722e-03 -4.41399e-03 -3.85547e-03
       H -2.90082e-04  1.47632e-03 -6.58268e-03
       O -8.14529e-04 -3.23479e-04  1.20280e-03
       H -2.63931e-03  5.02991e-03 -4.60154e-03
       H -2.81550e-03 -5.42206e-03  3.86547e-03
       O  4.61350e-04  8.99184e-05  1.95424e-03
       H  3.00256e-03  7.65543e-04  2.32986e-03
       H  5.43419e-03  4.72347e-03 -1.88871e-03
       O  5.25860e-04  1.38168e-03 -1.11666e-03
       H -2.70861e-03  3.26657e-03 -1.93122e-03
       H  3.62099e-03 -2.16213e-03  9.63582e-04
       O  5.50979e-04  1.40692e-04 -8.74852e-04
       H  4.06139e-03 -3.78231e-03  1.60580e-03
       H -1.84874e-03 -1.57702e-03 -5.67472e-03
       O -2.07841e-04 -1.52940e-04  1.98494e-04
       H  5.92355e-03 -1.38397e-03 -1.67129e-03
       H -2.24773e-03 -2.89042e-04  1.14919e-04
       O  1.04545e-03  2.79785e-04 -8.79084e-04
       H  1.54680e-03  1.11426e-04  3.89233e-03
       H -5.55897e-04 -6.26115e-04  6.89189e-04
       O -3.28104e-04 -3.08749e-04  8.36387e-04
       H  5.24669e-04 -4.39479e-03 -1.21861e-03
       H -2.14270e-03  8.60881e-04 -7.25659e-04
       O -5.84964e-04 -2.28572e-03 -2.05953e-04
       H -1.02198e-03  8.46431e-03  2.79546e-03
       H -7.54836e-04 -3.25148e-03  9.62953e-03
       O -1.20884e-04  1.38430e-04  1.64052e-04
       H -8.53735e-03  5.08158e-03  2.96715e-03
       H -2.38485e-03  9.91226e-04 -2.75664e-03
       O  3.31818e-04 -1.03896e-03 -4.39234e-04
       H -6.12527e-03 -4.09892e-03 -1.15042e-03
       H  4.47294e-04 -2.48973e-03  3.69407e-03
       O -9.32396e-04  1.10951e-04  1.69804e-03
       H -1.62327e-03  7.59779e-04 -2.34197e-03
       H -3.48580e-03  4.07421e-03 -5.15413e-03
       O -1.32140e-03 -2.84805e-04 -1.36388e-03
       H -2.30136e-03 -5.12685e-03 -4.18511e-03
       H -2.81367e-03 -2.24471e-03 -2.61280e-03
       O -9.98435e-04  7.36294e-04 -3.91685e-04
       H -3.10073e-03 -3.52325e-03  1.98599e-03
       H  2.88020e-03  4.65546e-03 -7.69898e-03
       O  3.84230e-04 -2.00925e-03  4.24692e-04
       H  9.95659e-04 -3.96547e-03 -6.59172e-03
       H  6.58794e-04  7.29101e-04 -1.04488e-04
       O -2.22428e-04 -9.96711e-04 -1.38868e-03
       H  2.43775e-03 -1.64307e-03  5.22705e-03
       H  8.49171e-04  3.28127e-03 -4.27877e-03
       O -1.83786e-03  2.18943e-04  2.25736e-04
       H  1.22133e-03  2.18747e-03  5.85363e-03
       H  3.74967e-03 -2.50604e-03 -2.99659e-03
       O  6.19985e-04 -6.01921e-04 -4.10736e-04
       H -5.72662e-04  3.17132e-03 -2.84752e-03
       H -6.63466e-03 -3.03510e-03  3.31841e-03
       O  5.15149e-04  2.35140e-04 -5.93744e-04
       H -2.18762e-03  3.22733e-03 -6.45480e-03
       H -4.36149e-03 -4.41572e-03 -4.86704e-03
       O -3.68766e-05 -3.91004e-04 -1.02213e-04
       H  3.54858e-04 -3.83625e-04  2.63147e-03
       H -1.25951e-03 -2.42762e-03 -1.57028e-03
       O -1.04438e-03  8.77133e-04  5.53148e-04
       H  7.17500e-03  5.38049e-03 -4.87842e-03
       H -4.14169e-03 -1.15949e-03  1.74061e-03
       O -7.28205e-04  9.38537e-04 -9.42925e-04
       H  6.16145e-03  1.64539e-03 -1.05665e-03
       H -7.07412e-04 -2.12221e-03  5.13823e-03
       O -8.42238e-04 -6.30502e-04  6.54169e-04
       H  8.04027e-03  2.27872e-04  1.33689e-03
       H -7.46870e-03 -3.86277e-03  3.69955e-03
       O -2.04654e-03 -1.43465e-03  2.72292e-04
       H -5.44468e-03 -4.52431e-03 -6.37172e-03
       H -1.03531e-03 -8.32009e-05 -3.39394e-04
       O -1.08590e-03 -5.24659e-04  1.18029e-03
       H  1.53816e-03 -2.73637e-03 -1.74027e-03
       H -2.09965e-03 -2.84017e-03  6.57760e-03
       O  4.92605e-04 -2.38697e-04  2.33570e-04
       H -1.56988e-03 -2.67473e-03  6.45624e-03
       H  3.99569e-03  1.42544e-03  2.95047e-03
       O  1.12008e-03 -1.40128e-03 -6.03153e-05
       H  5.40832e-03 -3.27683e-03 -1.16967e-03
       H -1.65741e-03  1.98656e-04  4.71725e-04
       O  8.03185e-04 -3.18510e-04  1.70429e-04
       H -7.48519e-04 -9.17720e-03  1.97565e-03
       H  4.30959e-03  7.21660e-04  2.39674e-03
       O -2.41451e-04  8.87511e-04  7.74568e-04
       H  4.81619e-03  4.34753e-03  3.69305e-03
       H -7.99855e-04 -1.65048e-04  3.99723e-03
       O -6.88820e-04  1.08866e-03 -4.55201e-06
       H  2.82768e-03 -4.59085e-03 -3.06435e-03
       H -4.26567e-03 -1.69572e-03  1.23840e-03
       O -8.68419e-04  2.29217e-03 -6.79793e-04
       H -8.88187e-04  8.39092e-03  5.80816e-04
       H  1.61497e-03  3.32782e-03  3.38448e-03
       O -1.26825e-03  8.16642e-04 -1.67623e-03
       H  3.14032e-03 -1.82286e-03 -3.58522e-03
       H -5.52345e-03 -2.05978e-03  5.41493e-03
       O -1.12903e-03  4.37715e-04 -5.63833e-04
       H -4.28112e-03 -3.77056e-03  5.58863e-03
       H -9.33514e-04  6.81759e-04  6.44069e-03
       O -1.45191e-03 -2.84711e-04  7.58877e-04
       H -5.70877e-03 -2.52753e-03  2.77854e-03
       H  4.01411e-04 -5.04265e-04  1.05678e-03
       O  1.58181e-04 -2.20071e-04 -6.95696e-05
       H  2.14517e-03  1.61506e-03  5.05858e-03
       H  4.50977e-03  1.36190e-03  4.34750e-03
       O -9.50548e-04 -1.55085e-03 -3.98968e-04
       H  4.26307e-03  4.57758e-03 -6.80630e-04
       H  1.26240e-03 -1.71116e-03  4.20648e-03
192
# CELL(abcABC):   16.99620    29.43815    27.67315    90.00000    90.00000    90.00000  Step:          10  Bead:      19 velocities{atomic_unit}  cell{atomic_unit}
       O  8.98610e-04  7.44174e-04 -5.73172e-04
       H -2.30052e-03  1.17493e-03  3.44934e-04
       H  5.24563e-03 -2.17397e-03  1.04024e-03
       O -1.51295e-04  5.07091e-04 -8.98678e-04
       H  7.47377e-04  3.52773e-03  5.35140e-03
       H  3.61255e-03  2.13741e-03  1.68403e-03
       O  1.10643e-03 -1.43997e-04  7.66468e-04
       H  3.14824e-03 -1.28315e-05 -1.06665e-03
       H -6.91604e-04 -3.68128e-03  8.09068e-03
       O -1.39315e-04 -3.70634e-05  4.03869e-04
       H -8.49129e-03 -7.50378e-04  2.68423e-03
       H -6.26457e-03 -6.02926e-03 -1.41868e-03
       O  8.70564e-04 -1.80178e-03  4.16887e-04
       H  4.28130e-03  2.65276e-03 -2.19451e-03
       H  3.49985e-03 -1.92999e-03 -6.08231e-04
       O -2.84015e-04  1.19012e-03 -4.98657e-04
       H  4.28935e-03 -3.48922e-03  7.73303e-03
       H -1.66155e-04 -1.86811e-03  1.46411e-03
       O  1.97091e-03 -1.93124e-03  9.71542e-04
       H -2.46678e-03 -6.26711e-03 -4.83170e-03
       H  3.24743e-06 -9.98596e-04  5.10453e-03
       O -7.13563e-04 -3.86883e-04 -1.09525e-04
       H  2.82190e-03  1.47880e-03  1.30858e-03
       H -7.98503e-03 -3.16584e-03 -1.23951e-03
       O -4.78538e-04  1.37815e-03  1.68301e-03
       H -1.08063e-03  1.05427e-03 -1.94134e-03
       H  1.96205e-03  1.50354e-03  9.76068e-04
       O  2.51099e-04  1.12961e-04 -7.52286e-04
       H  8.04550e-03 -1.27455e-03  1.43543e-03
       H  8.03660e-04 -2.11567e-03 -1.57416e-03
       O  6.88368e-04 -1.48499e-05 -1.37585e-03
       H -2.31176e-03  3.21561e-03 -2.95197e-03
       H  3.98545e-03  2.84659e-03  2.96322e-03
       O -9.98405e-04  1.78320e-03  1.04957e-04
       H -1.60213e-03  1.83064e-03  2.56298e-03
       H -5.34564e-03  3.22061e-03 -2.49309e-03
       O -3.11724e-04 -7.51036e-04 -2.04840e-03
       H -5.72268e-03 -4.44912e-03 -1.57485e-03
       H -2.53077e-03 -1.87733e-03 -2.67309e-03
       O -1.32076e-03  1.96692e-04  3.72088e-04
       H  8.37373e-04 -7.17763e-04  1.48692e-03
       H  1.20516e-03  1.14447e-03  9.25667e-04
       O  1.03525e-03  1.18890e-03 -4.57139e-05
       H -1.82158e-03  7.03456e-03  3.63035e-03
       H -2.12887e-03  1.11997e-03  3.91494e-03
       O  1.05399e-03  8.58209e-04 -1.00438e-03
       H -1.49828e-03 -9.12229e-04  1.63573e-03
       H -1.88395e-03  3.58109e-03 -5.60190e-03
       O -1.24050e-03  9.07696e-05 -7.16092e-05
       H -6.59475e-04 -3.02709e-03  1.69650e-03
       H  5.95969e-03 -4.31380e-03 -4.60071e-03
       O -2.21833e-04  9.07818e-04 -2.10794e-03
       H  9.45104e-04  1.01594e-03 -4.17904e-03
       H -2.44502e-03  1.08137e-03 -1.69711e-03
       O -5.41482e-04 -9.58211e-04 -2.59736e-04
       H -2.93428e-03 -4.72449e-05  1.82576e-05
       H  1.50178e-03  2.01058e-03 -2.16801e-03
       O -8.69584e-04  1.69731e-04 -4.28815e-04
       H  3.04196e-03 -2.85478e-03  4.07854e-04
       H  5.77178e-03  2.24045e-03 -1.31742e-03
       O -1.79422e-03 -8.30924e-04 -6.07218e-04
       H  1.23007e-02 -9.18312e-03  2.73875e-03
       H -4.73230e-05  4.82238e-03 -7.77795e-04
       O -2.88498e-04  3.93417e-04 -1.02449e-03
       H -2.73577e-03 -6.62807e-04  6.57872e-04
       H  5.63762e-04 -4.30513e-03  1.51435e-03
       O -2.85763e-04 -4.82018e-04  1.07598e-03
       H  5.70042e-04 -4.55337e-03  5.99801e-03
       H  4.94468e-03  2.11836e-03 -5.71792e-05
       O -1.08422e-03  4.79549e-04 -6.10158e-04
       H -3.84139e-03  3.63077e-03  4.00274e-03
       H -1.12476e-03  6.46030e-03 -1.38390e-03
       O  8.37284e-04  1.36167e-03 -8.00397e-04
       H  2.33421e-03  1.51868e-03 -5.29144e-03
       H -9.81163e-04 -2.22723e-03 -4.20176e-04
       O -5.76891e-04  5.24107e-04  7.95103e-05
       H -6.57137e-04  1.14472e-03  1.04611e-03
       H  4.39048e-03  5.24552e-03  1.93141e-03
       O  4.99149e-04  1.06161e-04 -5.96384e-04
       H  4.22510e-03 -3.36875e-03  6.17430e-03
       H  2.22773e-03  5.32389e-03 -5.41736e-03
       O -2.22531e-04  1.09448e-03 -1.34460e-03
       H -2.30688e-03 -5.85830e-03  7.99022e-05
       H -3.59453e-03  8.64128e-04 -1.02668e-03
       O  1.35934e-03  2.26744e-04 -3.33800e-05
       H -6.28864e-03 -1.81505e-03 -8.06789e-05
       H -4.67472e-03  2.04195e-03 -6.38732e-03
       O  2.27464e-04  7.92913e-04  3.27658e-04
       H  2.19826e-03 -5.55718e-03 -7.46759e-03
       H -2.26581e-03  2.62758e-03  3.86406e-04
       O -5.07014e-04 -1.35547e-03  1.52892e-03
       H  4.33446e-03  5.87880e-03  7.40300e-03
       H -2.78218e-03 -4.06854e-03 -1.10235e-03
       O  9.34069e-05  1.07518e-04  1.48754e-03
       H -1.60688e-04  3.19314e-03  5.37997e-03
       H  3.91228e-03 -3.40842e-03 -3.19044e-03
       O  8.78167e-04  1.14497e-03  1.01835e-03
       H  4.10715e-04 -4.31314e-03  2.03557e-03
       H  3.87115e-03  1.04479e-03 -2.02163e-03
       O  6.76706e-04  1.12531e-04  2.41341e-03
       H -1.91966e-03  8.11375e-04 -4.88779e-03
       H -3.56061e-03 -1.94387e-03 -3.40409e-03
       O  1.45052e-03 -5.08586e-04  1.16810e-03
       H -1.14177e-03  1.74094e-03  4.48221e-03
       H -1.90524e-03  2.24498e-03 -7.76344e-03
       O  1.36572e-04 -7.09239e-04  1.34252e-03
       H  2.86353e-03 -2.63259e-03  2.05037e-03
       H -7.66466e-03 -2.46222e-03  6.82826e-04
       O  1.28667e-03 -1.07566e-04  4.22287e-04
       H -1.74496e-03 -8.60230e-04 -3.84289e-04
       H -3.58898e-04  1.98004e-04 -9.27864e-03
       O -1.66651e-03  6.94870e-05  8.78087e-05
       H  1.70706e-03 -1.52807e-03  1.11835e-03
       H -4.94920e-03  2.07545e-03  2.41217e-03
       O -6.37075e-04  4.09678e-04  2.56007e-04
       H -2.55388e-03  3.37593e-03 -6.36110e-04
       H  1.98721e-03 -6.06689e-03  2.15990e-03
       O  8.14762e-04  1.84961e-03 -2.00622e-03
       H -2.43034e-04  4.32442e-03  2.38930e-06
       H -1.62382e-03  2.57867e-03  2.01168e-03
       O -9.47171e-04 -6.98715e-04  5.07447e-04
       H  1.62877e-03  1.08860e-03 -4.03245e-03
       H -1.25016e-03 -4.44305e-03  6.94785e-04
       O -9.27130e-05 -3.86128e-04  2.93311e-04
       H  2.96463e-03  2.85429e-03 -5.96011e-04
       H -3.92399e-03  5.27994e-04  1.30859e-03
       O  5.05014e-04 -1.83846e-05  7.96180e-04
       H  3.79315e-03  3.75799e-03 -3.97359e-04
       H  1.85325e-03  4.96890e-04  7.94822e-03
       O  6.43961e-04 -7.31731e-04  1.40379e-03
       H -6.55301e-03  1.47188e-03  3.19957e-03
       H  3.05014e-03 -5.18693e-03  8.61198e-04
       O -7.14175e-04 -6.31758e-04 -4.25245e-04
       H -3.18425e-03 -2.12338e-03 -1.35286e-03
       H  4.87323e-04 -2.78232e-04  4.03872e-03
       O -3.88968e-04 -1.33724e-03  1.35944e-03
       H  4.46382e-03 -2.90688e-03 -5.66705e-03
       H  8.77746e-04  1.50880e-03  7.42074e-03
       O  6.79754e-04  9.03913e-04 -5.44571e-04
       H -2.20260e-03  6.53784e-03  1.61195e-03
       H  7.79268e-04 -1.54311e-03 -5.17865e-03
       O  3.94452e-04  3.02045e-04  4.99919e-04
       H  3.16075e-03 -2.15826e-03 -2.85419e-03
       H  1.57865e-03  2.12853e-03 -4.83875e-03
       O  1.31383e-03  8.12193e-04  8.69119e-04
       H  3.51609e-03 -4.26932e-03  1.85095e-03
       H -8.10233e-03 -8.44842e-04 -2.01204e-03
       O  1.10740e-04  4.47051e-05 -9.84283e-04
       H  3.09329e-04  2.07664e-03  2.11237e-04
       H  2.99126e-03  1.27412e-03 -1.81857e-03
       O -6.97773e-04 -4.63343e-05 -3.07112e-04
       H  5.08812e-03 -2.35038e-03  4.27716e-03
       H -5.31440e-03 -4.09229e-03 -2.36161e-03
       O -4.43181e-04  6.65517e-04  5.96913e-04
       H -6.61767e-04 -2.31594e-03 -5.39228e-03
       H -4.33829e-03 -2.69160e-03  1.78468e-03
       O  1.44623e-03 -4.47740e-04  7.08954e-04
       H  3.26284e-03 -3.83254e-03 -4.77649e-03
       H  2.13705e-03  1.74135e-03  5.62340e-03
       O -1.26874e-03  1.18632e-03 -8.94869e-04
       H -2.46177e-03 -7.68068e-04 -3.04704e-03
       H  4.49553e-03 -7.35883e-04 -7.67791e-03
       O  6.76298e-04 -1.22539e-03 -5.63752e-04
       H -1.82289e-03 -5.49983e-04 -1.38978e-03
       H  4.67440e-03  5.25815e-03  2.44091e-04
       O  1.39265e-03 -3.01353e-04 -7.52299e-04
       H  1.88972e-03  6.24780e-04 -7.53549e-03
       H  3.75852e-03 -1.31406e-03  3.25116e-03
       O  8.94191e-04  3.54784e-04  9.36495e-04
       H  4.04318e-04 -3.21306e-03  2.11355e-03
       H  1.95263e-03  2.19602e-03  4.40689e-03
       O  1.00828e-03  1.23680e-04 -7.84652e-05
       H  4.77776e-03  1.37872e-03 -1.84593e-03
       H -5.63294e-03  1.31646e-04 -3.58744e-03
       O -4.60859e-04 -1.17733e-04 -4.09096e-04
       H -1.85957e-03  1.04295e-03 -5.43098e-04
       H  4.26826e-03 -1.16526e-03  2.87627e-03
       O -1.95692e-04 -5.30402e-04 -4.06347e-04
       H  4.48272e-03  1.12058e-03  7.97260e-03
       H  4.24714e-04 -5.05610e-03 -5.75112e-05
       O  3.02244e-04  7.51876e-04 -1.96378e-04
       H -7.15653e-03  1.34293e-04  1.79810e-03
       H -3.59490e-04  4.17481e-03 -1.99544e-04
       O -4.42185e-04  5.79961e-04 -1.07740e-03
       H  1.94511e-03  2.69177e-03 -1.12740e-03
       H  1.93086e-03 -1.38193e-04  8.70853e-04
       O  8.32748e-05 -2.06118e-04  8.36866e-04
       H  5.08939e-03 -2.73609e-03 -2.72770e-03
       H -3.73931e-04  5.74832e-03 -5.92617e-03
       O  5.42950e-04 -9.22304e-04  5.43425e-04
       H  1.06651e-03  1.24814e-03  6.04265e-04
       H  5.54795e-03 -2.42533e-03  2.87052e-03
192
# CELL(abcABC):   16.99620    29.43815    27.67315    90.00000    90.00000    90.00000  Step:          20  Bead:      19 velocities{atomic_unit}  cell{atomic_unit}
       O -4.95312e-04 -1.03018e-03 -4.01256e-04
       H  4.29540e-03 -2.20446e-03 -1.05294e-03
       H -5.15674e-03 -4.08427e-03  8.59443e-04
       O -5.20854e-04  2.35162e-03 -6.17200e-05
       H  5.47258e-04 -4.16750e-03 -2.23507e-03
       H -3.99207e-03 -8.00739e-03 -6.55665e-03
       O -6.66902e-04  1.20735e-03  1.14390e-03
       H -2.71274e-03 -1.11050e-03  6.17766e-03
       H  2.51671e-03 -3.76007e-03 -1.75552e-04
       O  1.13492e-03 -1.48217e-03  3.66597e-04
       H  1.80651e-03 -1.15634e-03  5.23169e-03
       H  2.14468e-03  8.33329e-04  2.81400e-03
       O  3.61151e-04 -9.38899e-04 -1.19283e-03
       H -1.54450e-04  3.35146e-04 -2.72141e-03
       H  5.71147e-04  4.92947e-03 -7.29774e-03
       O  7.24251e-04  6.72269e-05  2.45817e-04
       H -2.33205e-03 -9.46174e-04  8.38388e-04
       H  6.45741e-03 -1.04599e-03 -2.43911e-03
       O  2.52681e-05 -1.21306e-05 -4.77724e-04
       H  5.44395e-04 -1.44183e-03  2.49328e-03
       H  5.26611e-03  6.22342e-03 -1.02252e-03
       O -1.54586e-03 -7.40363e-05 -1.21079e-04
       H  4.06008e-05 -2.56067e-03 -6.07221e-04
       H -6.10663e-03 -7.57637e-04 -2.03916e-03
       O  3.95022e-04  4.55863e-04 -4.70352e-04
       H -2.82931e-03  1.71830e-03 -2.27110e-03
       H -1.85375e-03  3.84479e-04 -4.64881e-03
       O  9.88444e-05 -9.00010e-04  2.06942e-03
       H  4.61007e-03  6.57047e-04 -6.72847e-03
       H -3.20279e-03 -2.12061e-03  5.92469e-03
       O  9.24130e-04  6.63195e-04  2.59657e-04
       H -1.12228e-03 -4.10052e-03  3.07790e-03
       H -8.61785e-04 -4.74354e-03  6.85863e-03
       O  1.67595e-03 -6.80760e-05 -5.67029e-04
       H  2.99507e-03 -5.29189e-03  1.11569e-03
       H  4.58548e-03 -6.54287e-04 -4.26710e-03
       O  3.72696e-04  1.44410e-03  2.07118e-04
       H -8.76821e-03 -8.04988e-03  1.73126e-03
       H  2.65969e-03  1.49548e-04 -9.38824e-04
       O  6.52642e-04  4.58255e-04  6.60389e-04
       H  2.39074e-03 -2.72036e-03 -1.36704e-03
       H -2.56240e-03  3.74004e-03 -9.28515e-03
       O  4.96218e-05 -5.88252e-04  9.35988e-04
       H -2.10301e-04  5.34819e-03 -5.02403e-03
       H -2.68058e-03 -5.77343e-03  4.99905e-03
       O -2.52117e-04 -6.83575e-04  6.49427e-04
       H  3.24621e-03  1.92618e-04  1.10999e-03
       H  6.41430e-03  1.89170e-03 -1.16622e-03
       O -8.79024e-04 -4.13910e-04  7.32291e-04
       H  3.93187e-03  4.16658e-03 -7.96488e-04
       H  5.11345e-04  7.51486e-03  6.79984e-04
       O  1.26022e-03 -7.70393e-04 -3.83482e-04
       H -2.21352e-03 -7.49794e-04  4.68121e-04
       H -4.40041e-03 -3.61795e-03 -1.12391e-02
       O -1.32899e-03 -1.68545e-03  4.63698e-04
       H  9.05392e-04  5.23689e-04  5.70050e-03
       H -4.70455e-03 -1.35472e-04 -2.33361e-03
       O -3.99309e-04 -1.11218e-03 -5.91677e-04
       H  1.47038e-03  3.54246e-03  4.55730e-03
       H -1.72210e-03  1.51900e-03  6.33062e-03
       O  4.59894e-04 -2.56569e-03 -1.19437e-03
       H -8.09732e-04 -7.58932e-03  3.42575e-03
       H -1.12831e-03 -2.20301e-04  2.94083e-03
       O -1.78858e-03  1.72205e-04 -1.30667e-05
       H  2.29358e-03 -1.71295e-03 -1.78676e-04
       H -2.10209e-03  3.15421e-03 -1.06403e-03
       O -1.52916e-04  1.11951e-03 -2.54342e-04
       H  6.11041e-03  2.92599e-03  1.93973e-03
       H  9.57113e-03 -1.33324e-03  5.23375e-03
       O  3.42963e-06 -9.44335e-04  3.57403e-05
       H  4.11308e-03 -3.58077e-04 -7.24046e-03
       H  9.86419e-04 -5.74020e-03  4.67355e-04
       O -1.12255e-03 -2.64258e-06 -9.80223e-04
       H -2.56582e-03  2.09542e-03 -8.49568e-04
       H  5.40503e-04  2.10667e-03  1.54079e-03
       O  1.45013e-04  9.57461e-05  1.95259e-04
       H  9.88061e-04  1.30417e-03 -2.17497e-03
       H -3.39036e-03  1.34160e-03  3.23360e-03
       O -1.65233e-04 -1.38617e-03  2.10287e-04
       H  3.06582e-03 -1.49888e-04  9.99985e-04
       H -9.82711e-04  7.71753e-03  3.02767e-03
       O -1.43565e-03 -8.64822e-04 -5.76131e-04
       H -5.28198e-04 -6.25807e-03 -4.80941e-03
       H -3.47374e-04 -6.42464e-04 -1.18664e-03
       O  6.94816e-04  8.77981e-04 -2.64947e-04
       H -1.13834e-04  1.44568e-04  2.99078e-03
       H -1.63299e-03 -5.23778e-03  1.35407e-04
       O  6.68645e-04  1.95507e-03  1.81485e-03
       H -2.75603e-03  3.25418e-03  3.76412e-03
       H  6.08706e-03 -9.66862e-03  4.34747e-03
       O -7.84923e-04  6.24335e-04  1.92108e-03
       H -4.02736e-03 -3.01987e-04 -1.45534e-03
       H  8.10862e-04  7.32676e-04  6.41368e-03
       O  1.12798e-03 -6.79341e-04  8.42923e-04
       H  5.22193e-03 -4.60630e-03  1.46865e-03
       H -2.30984e-04  9.36332e-04 -3.66067e-04
       O -5.84596e-04 -1.83018e-05 -1.21444e-04
       H -1.25838e-03 -2.46968e-03  7.42397e-04
       H  5.35790e-04  5.72198e-03  1.06457e-04
       O -1.19408e-03 -5.71103e-04  2.59872e-04
       H -2.35751e-03  4.69628e-03  4.64571e-03
       H  5.34699e-04 -8.74702e-03  1.57487e-03
       O -6.14327e-04 -3.81249e-04  4.40325e-04
       H  7.58200e-03  6.87028e-03 -1.18274e-03
       H -5.41829e-03  9.52916e-04  2.39214e-03
       O -1.61093e-04  2.10317e-03  7.39051e-04
       H  4.32335e-03  5.03547e-03 -2.22903e-03
       H  2.17032e-03  1.24115e-03  2.54281e-03
       O -4.11068e-04 -2.27593e-04  4.00807e-05
       H -1.74914e-03  3.88195e-04 -6.49187e-03
       H -8.59946e-03  6.60636e-03 -3.43266e-03
       O  1.99088e-03 -6.57079e-04 -1.03562e-03
       H  3.28547e-03  5.90306e-03  4.59623e-03
       H -4.92614e-03  4.81500e-04 -2.37556e-04
       O  9.89213e-04  1.28556e-03 -3.16109e-04
       H -3.98350e-03 -7.17349e-04 -6.52471e-03
       H -7.86040e-03  2.98707e-03 -3.91981e-04
       O  4.72837e-04 -6.40674e-05 -9.82274e-05
       H  1.99736e-03  2.25426e-04 -7.22682e-03
       H -2.02123e-03 -2.79066e-03 -1.38573e-03
       O  1.09198e-03 -8.04603e-04 -4.07387e-04
       H  6.85835e-03 -3.96148e-03 -1.54122e-03
       H  9.01654e-04 -3.92160e-03  7.15158e-04
       O -3.23300e-04 -8.89310e-04  7.55430e-04
       H  2.04882e-03 -3.99719e-03  5.21329e-03
       H  1.89326e-03  5.30121e-03  3.22167e-03
       O  1.29792e-03  3.97215e-04  1.00121e-03
       H  3.34911e-04  1.54938e-03 -4.37941e-03
       H -1.37481e-03  3.84983e-04 -3.10637e-03
       O -1.34753e-03  4.04898e-04 -3.98097e-04
       H  2.78101e-03  3.50913e-03  3.27819e-03
       H -3.33035e-03 -2.52627e-04 -2.28909e-03
       O -3.89495e-04  1.49988e-04 -3.28401e-04
       H -1.17136e-04  5.63304e-03 -6.99043e-03
       H  4.45311e-03 -1.26992e-03  1.39559e-03
       O  1.70443e-03  6.55532e-04  1.84483e-03
       H -1.90760e-03 -1.03289e-03 -9.07578e-04
       H -1.71908e-03  5.60153e-03 -2.27765e-03
       O  8.43449e-04 -6.15090e-04 -2.53592e-04
       H  2.49776e-03  1.87741e-03  1.03158e-03
       H -5.68235e-03  7.36365e-03  2.07173e-03
       O  1.84854e-03  8.06514e-04 -1.95623e-04
       H  2.83721e-03 -3.02277e-03  2.75001e-03
       H -3.82580e-03  1.15617e-03  1.35132e-05
       O -1.10519e-03 -1.35797e-03 -5.51600e-04
       H  7.08992e-03  8.35293e-03  1.81070e-03
       H -6.53505e-04  1.69176e-03 -4.67029e-03
       O  7.21066e-04  1.36320e-03  2.85795e-04
       H  2.61077e-03  6.00742e-03 -1.47656e-03
       H  8.60776e-04  3.78582e-03 -2.00661e-03
       O  2.66385e-04  6.79397e-04  2.93828e-04
       H  3.33293e-03 -1.37675e-03  2.10639e-03
       H -3.43949e-03 -4.72757e-04 -5.88457e-03
       O -5.82635e-05  9.85375e-04  2.43251e-04
       H  1.68705e-05  2.03574e-03 -2.01267e-03
       H -7.82301e-04 -4.79884e-03 -5.03225e-03
       O  4.89399e-04  7.97095e-04  1.01738e-03
       H -1.93890e-03  3.52987e-03 -3.02365e-03
       H  1.14724e-03  1.57111e-03  4.63852e-03
       O  2.66408e-04  5.81418e-04 -8.26847e-04
       H -1.44429e-03  5.28684e-03  8.72098e-05
       H -5.52480e-03 -2.93441e-03  1.95212e-03
       O  7.22337e-04  3.06830e-04 -6.16322e-04
       H -5.95238e-04  1.38637e-03  1.93015e-03
       H -9.06096e-03  3.37381e-03 -4.45544e-03
       O -1.44137e-03 -3.52092e-04  8.35895e-05
       H  4.65888e-04 -1.16145e-03 -5.47032e-04
       H -6.77052e-03  4.79609e-04 -1.43377e-03
       O -5.93239e-04 -8.88452e-05  2.45334e-04
       H -1.66081e-03 -3.20427e-03  1.21520e-03
       H -1.09450e-03  5.15807e-04 -3.97094e-04
       O -6.24909e-04 -1.00628e-03  1.65972e-03
       H  1.12974e-03 -2.22114e-03 -3.77688e-03
       H  2.14600e-06 -1.56517e-03 -1.21922e-03
       O  1.17381e-03 -7.03653e-04 -7.38998e-04
       H  7.79830e-06  3.14204e-03 -6.56548e-04
       H -3.69055e-03  5.40479e-04  2.12121e-03
       O  2.30943e-04  1.49835e-03  3.57973e-05
       H -4.67785e-04 -5.14356e-03 -2.24019e-03
       H -1.11706e-03 -1.25013e-03 -1.78381e-03
       O -1.51151e-03 -5.24931e-04  3.92507e-04
       H  1.87798e-03  9.69570e-04  3.56214e-04
       H -4.94657e-03 -1.93767e-03  1.69538e-04
       O  1.38234e-03  7.17905e-06 -6.01162e-04
       H -1.59696e-03 -1.00302e-03 -7.20963e-04
       H  4.16911e-03  2.71604e-03  3.92168e-03
       O  1.99628e-03 -6.69393e-04 -1.38574e-04
       H -6.21650e-03 -3.92475e-03 -2.77559e-03
       H -7.46566e-04 -5.59968e-04 -8.91175e-04
       O  2.57857e-04  5.75594e-04 -8.53816e-04
       H -3.33053e-03  2.75227e-03 -4.57164e-03
       H  3.38191e-03  4.15607e-04 -1.53495e-03
192
# CELL(abcABC):   16.99620    29.43815    27.67315    90.00000    90.00000    90.00000  Step:          30  Bead:      19 velocities{atomic_unit}  cell{atomic_unit}
       O -4.97075e-04 -1.42373e-03  3.21483e-05
       H  1.35261e-03  2.72907e-03  6.85826e-03
       H -5.24067e-03 -5.70629e-03  3.46026e-03
       O  3.71422e-04  6.48537e-04  1.29817e-03
       H -1.60242e-03  3.92678e-03  3.44581e-03
       H  8.59517e-03 -1.85476e-03 -2.13290e-04
       O  9.16377e-05 -1.77298e-04 -6.50963e-04
       H -7.97976e-04  1.78664e-03  8.71023e-03
       H  1.78714e-03  6.06188e-04  5.34402e-03
       O -3.77984e-04 -2.03898e-04  1.29542e-04
       H -3.40821e-03  7.83294e-03  2.61008e-04
       H -1.79200e-03  5.54200e-03  2.86623e-03
       O  3.41777e-04 -1.40666e-04  6.26952e-04
       H -2.32371e-03  2.78108e-03  1.13460e-03
       H  1.83324e-03  8.72871e-03 -5.48260e-04
       O  1.85016e-03  5.97239e-04 -5.77795e-04
       H  3.33826e-04  6.34054e-06 -2.32900e-04
       H -5.19040e-03 -1.77266e-03  2.19808e-03
       O -5.59865e-04  1.76279e-04  1.34999e-03
       H  5.54835e-04  2.88961e-03  3.66817e-04
       H  4.04023e-03 -2.75741e-04 -2.09857e-03
       O -7.28310e-04  3.13544e-04  1.16283e-03
       H -1.35762e-03  6.13698e-03  7.64609e-04
       H  1.03181e-03  3.26719e-03  5.34960e-03
       O  1.33061e-04  1.16090e-05  4.93670e-04
       H  1.96327e-03  2.20373e-03  4.86770e-03
       H  4.10769e-03  2.75766e-03  2.16255e-03
       O -1.42692e-04 -1.05833e-04 -4.17288e-04
       H  1.70867e-03  4.04839e-03  1.06445e-02
       H -1.15525e-03 -5.11493e-03  1.95614e-03
       O -3.74721e-04  9.18721e-04  1.48632e-03
       H  9.96144e-04 -2.04075e-03 -5.64047e-03
       H  4.35716e-03  1.23160e-04 -1.01253e-02
       O -1.93594e-03 -4.92878e-04  1.46261e-03
       H  3.58216e-03  3.72054e-03  2.10203e-03