192
# CELL(abcABC):   16.99620    29.43815    27.67315    90.00000    90.00000    90.00000  Step:           0  Bead:       0 positions{atomic_unit}  cell{atomic_unit}
       O -8.21943e+00 -9.93714e+00 -1.31733e+01
       H  7.30975e+00 -1.09659e+01 -1.36333e+01
       H -6.70309e+00 -1.09427e+01 -1.35003e+01
       O -3.97045e+00 -2.57760e+00 -1.31733e+01
       H -5.43740e+00 -3.60640e+00 -1.36335e+01
       H -2.45410e+00 -3.58307e+00 -1.35002e+01
       O -3.95479e+00 -1.25494e+01 -7.82537e-01
       H -3.95303e+00 -1.43463e+01 -2.27998e-01
       H -4.14654e+00 -1.25640e+01 -2.59980e+00
       O -8.20381e+00 -5.18980e+00 -7.82573e-01
       H -8.20206e+00 -6.98662e+00 -2.28079e-01
       H -8.39554e+00 -5.20430e+00 -2.59985e+00
       O -4.52774e+00 -1.21415e+01 -6.25501e+00
       H -6.04401e+00 -1.11359e+01 -6.58198e+00
       H -3.06070e+00 -1.11128e+01 -6.71509e+00
       O  8.21948e+00 -4.78197e+00 -6.25503e+00
       H  6.70316e+00 -3.77646e+00 -6.58191e+00
       H -7.30970e+00 -3.75321e+00 -6.71514e+00
       O  8.20373e+00 -9.52922e+00 -7.70081e+00
       H  8.39566e+00 -9.51468e+00 -9.51806e+00
       H  8.20220e+00 -7.73240e+00 -7.14624e+00
       O -4.54345e+00 -2.16975e+00 -7.70084e+00
       H -4.35162e+00 -2.15526e+00 -9.51812e+00
       H -4.54503e+00 -3.72917e-01 -7.14634e+00
       O -8.21943e+00 -9.93697e+00  6.63195e-01
       H  7.30977e+00 -1.09657e+01  2.03202e-01
       H -6.70308e+00 -1.09425e+01  3.36227e-01
       O -3.97044e+00 -2.57760e+00  6.63173e-01
       H -5.43747e+00 -3.60635e+00  2.03069e-01
       H -2.45410e+00 -3.58312e+00  3.36346e-01
       O -3.95472e+00 -1.25494e+01  1.30540e+01
       H -3.95309e+00 -1.43462e+01  1.36086e+01
       H -4.14653e+00 -1.25640e+01  1.12368e+01
       O -8.20380e+00 -5.18990e+00  1.30541e+01
       H -8.20202e+00 -6.98672e+00  1.36085e+01
       H -8.39553e+00 -5.20434e+00  1.12368e+01
       O -4.52771e+00 -1.21415e+01  7.58159e+00
       H -6.04402e+00 -1.11360e+01  7.25460e+00
       H -3.06070e+00 -1.11128e+01  7.12152e+00
       O  8.21944e+00 -4.78191e+00  7.58149e+00
       H  6.70312e+00 -3.77633e+00  7.25453e+00
       H -7.30974e+00 -3.75322e+00  7.12139e+00
       O  8.20378e+00 -9.52926e+00  6.13582e+00
       H  8.39564e+00 -9.51474e+00  4.31856e+00
       H  8.20221e+00 -7.73246e+00  6.69037e+00
       O -4.54344e+00 -2.16971e+00  6.13568e+00
       H -4.35161e+00 -2.15522e+00  4.31840e+00
       H -4.54506e+00 -3.72896e-01  6.69017e+00
       O -8.21947e+00  4.78210e+00 -1.31734e+01
       H  7.30974e+00  3.75335e+00 -1.36334e+01
       H -6.70314e+00  3.77651e+00 -1.35002e+01
       O -3.97046e+00  1.21415e+01 -1.31733e+01
       H -5.43745e+00  1.11127e+01 -1.36334e+01
       H -2.45410e+00  1.11360e+01 -1.35002e+01
       O -3.95479e+00  2.16971e+00 -7.82462e-01
       H -3.95303e+00  3.72884e-01 -2.27933e-01
       H -4.14646e+00  2.15509e+00 -2.59975e+00
       O -8.20376e+00  9.52923e+00 -7.82499e-01
       H -8.20200e+00  7.73238e+00 -2.27998e-01
       H -8.39546e+00  9.51472e+00 -2.59977e+00
       O -4.52774e+00  2.57749e+00 -6.25512e+00
       H -6.04400e+00  3.58312e+00 -6.58197e+00
       H -3.06066e+00  3.60618e+00 -6.71512e+00
       O  8.21949e+00  9.93715e+00 -6.25509e+00
       H  6.70318e+00  1.09426e+01 -6.58202e+00
       H -7.30970e+00  1.09659e+01 -6.71526e+00
       O  8.20366e+00  5.18988e+00 -7.70077e+00
       H  8.39552e+00  5.20437e+00 -9.51803e+00
       H  8.20217e+00  6.98669e+00 -7.14625e+00
       O -4.54337e+00  1.25494e+01 -7.70088e+00
       H -4.35159e+00  1.25639e+01 -9.51817e+00
       H -4.54500e+00  1.43462e+01 -7.14634e+00
       O -8.21952e+00  4.78190e+00  6.63226e-01
       H  7.30971e+00  3.75313e+00  2.03107e-01
       H -6.70317e+00  3.77635e+00  3.36440e-01
       O -3.97040e+00  1.21415e+01  6.63326e-01
       H -5.43738e+00  1.11127e+01  2.03185e-01
       H -2.45407e+00  1.11360e+01  3.36426e-01
       O -3.95476e+00  2.16964e+00  1.30541e+01
       H -3.95303e+00  3.72832e-01  1.36087e+01
       H -4.14651e+00  2.15510e+00  1.12369e+01
       O -8.20373e+00  9.52937e+00  1.30540e+01
       H -8.20206e+00  7.73252e+00  1.36085e+01
       H -8.39548e+00  9.51483e+00  1.12368e+01
       O -4.52770e+00  2.57756e+00  7.58140e+00
       H -6.04399e+00  3.58315e+00  7.25450e+00
       H -3.06066e+00  3.60630e+00  7.12138e+00
       O  8.21951e+00  9.93714e+00  7.58157e+00
       H  6.70319e+00  1.09427e+01  7.25463e+00
       H -7.30968e+00  1.09658e+01  7.12140e+00
       O  8.20369e+00  5.18993e+00  6.13578e+00
       H  8.39547e+00  5.20441e+00  4.31850e+00
       H  8.20212e+00  6.98674e+00  6.69030e+00
       O -4.54348e+00  1.25494e+01  6.13570e+00
       H -4.35158e+00  1.25639e+01  4.31845e+00
       H -4.54503e+00  1.43462e+01  6.69025e+00
       O  2.78573e-01 -9.93717e+00 -1.31734e+01
       H -1.18842e+00 -1.09659e+01 -1.36336e+01
       H  1.79493e+00 -1.09427e+01 -1.35002e+01
       O  4.52772e+00 -2.57751e+00 -1.31733e+01
       H  3.06068e+00 -3.60627e+00 -1.36334e+01
       H  6.04403e+00 -3.58305e+00 -1.35003e+01
       O  4.54334e+00 -1.25494e+01 -7.82465e-01
       H  4.54513e+00 -1.43463e+01 -2.27989e-01
       H  4.35168e+00 -1.25640e+01 -2.59974e+00
       O  2.94294e-01 -5.18980e+00 -7.82487e-01
       H  2.96032e-01 -6.98663e+00 -2.28053e-01
       H  1.02602e-01 -5.20427e+00 -2.59977e+00
       O  3.97042e+00 -1.21415e+01 -6.25517e+00
       H  2.45414e+00 -1.11359e+01 -6.58198e+00
       H  5.43747e+00 -1.11128e+01 -6.71526e+00
       O -2.78672e-01 -4.78194e+00 -6.25508e+00
       H -1.79498e+00 -3.77636e+00 -6.58199e+00
       H  1.18837e+00 -3.75320e+00 -6.71514e+00
       O -2.94511e-01 -9.52920e+00 -7.70081e+00
       H -1.02600e-01 -9.51466e+00 -9.51806e+00
       H -2.96005e-01 -7.73240e+00 -7.14625e+00
       O  3.95462e+00 -2.16972e+00 -7.70080e+00
       H  4.14654e+00 -2.15521e+00 -9.51804e+00
       H  3.95318e+00 -3.72879e-01 -7.14628e+00
       O  2.78541e-01 -9.93701e+00  6.63104e-01
       H -1.18842e+00 -1.09658e+01  2.03011e-01
       H  1.79493e+00 -1.09425e+01  3.36333e-01
       O  4.52773e+00 -2.57757e+00  6.63187e-01
       H  3.06068e+00 -3.60633e+00  2.03125e-01
       H  6.04402e+00 -3.58308e+00  3.36357e-01
       O  4.54332e+00 -1.25494e+01  1.30541e+01
       H  4.54518e+00 -1.43462e+01  1.36086e+01
       H  4.35169e+00 -1.25640e+01  1.12368e+01
       O  2.94281e-01 -5.18991e+00  1.30541e+01
       H  2.95995e-01 -6.98675e+00  1.36085e+01
       H  1.02570e-01 -5.20435e+00  1.12368e+01
       O  3.97044e+00 -1.21415e+01  7.58145e+00
       H  2.45413e+00 -1.11360e+01  7.25466e+00
       H  5.43745e+00 -1.11128e+01  7.12135e+00
       O -2.78601e-01 -4.78191e+00  7.58148e+00
       H -1.79495e+00 -3.77634e+00  7.25458e+00
       H  1.18839e+00 -3.75323e+00  7.12138e+00
       O -2.94501e-01 -9.52922e+00  6.13582e+00
       H -1.02637e-01 -9.51466e+00  4.31854e+00
       H -2.96013e-01 -7.73241e+00  6.69035e+00
       O  3.95462e+00 -2.16967e+00  6.13570e+00
       H  4.14656e+00 -2.15516e+00  4.31844e+00
       H  3.95315e+00 -3.72836e-01  6.69024e+00
       O  2.78636e-01  4.78206e+00 -1.31735e+01
       H -1.18832e+00  3.75329e+00 -1.36335e+01
       H  1.79499e+00  3.77651e+00 -1.35003e+01
       O  4.52773e+00  1.21415e+01 -1.31733e+01
       H  3.06066e+00  1.11127e+01 -1.36334e+01
       H  6.04403e+00  1.11360e+01 -1.35003e+01
       O  4.54332e+00  2.16970e+00 -7.82499e-01
       H  4.54510e+00  3.72872e-01 -2.27973e-01
       H  4.35161e+00  2.15513e+00 -2.59979e+00
       O  2.94188e-01  9.52923e+00 -7.82517e-01
       H  2.95976e-01  7.73239e+00 -2.28033e-01
       H  1.02486e-01  9.51470e+00 -2.59980e+00
       O  3.97041e+00  2.57752e+00 -6.25508e+00
       H  2.45414e+00  3.58307e+00 -6.58188e+00
       H  5.43747e+00  3.60626e+00 -6.71516e+00
       O -2.78677e-01  9.93714e+00 -6.25506e+00
       H -1.79497e+00  1.09427e+01 -6.58203e+00
       H  1.18838e+00  1.09659e+01 -6.71517e+00
       O -2.94451e-01  5.18990e+00 -7.70074e+00
       H -1.02475e-01  5.20442e+00 -9.51799e+00
       H -2.95971e-01  6.98671e+00 -7.14623e+00
       O  3.95453e+00  1.25494e+01 -7.70088e+00
       H  4.14650e+00  1.25638e+01 -9.51813e+00
       H  3.95314e+00  1.43462e+01 -7.14638e+00
       O  2.78666e-01  4.78190e+00  6.63181e-01
       H -1.18838e+00  3.75314e+00  2.03219e-01
       H  1.79499e+00  3.77637e+00  3.36305e-01
       O  4.52768e+00  1.21415e+01  6.63233e-01
       H  3.06065e+00  1.11127e+01  2.03130e-01
       H  6.04402e+00  1.11359e+01  3.36318e-01
       O  4.54337e+00  2.16963e+00  1.30541e+01
       H  4.54515e+00  3.72778e-01  1.36085e+01
       H  4.35165e+00  2.15511e+00  1.12368e+01
       O  2.94139e-01  9.52935e+00  1.30540e+01
       H  2.96028e-01  7.73252e+00  1.36085e+01
       H  1.02508e-01  9.51480e+00  1.12368e+01
       O  3.97044e+00  2.57752e+00  7.58146e+00
       H  2.45409e+00  3.58312e+00  7.25468e+00
       H  5.43745e+00  3.60627e+00  7.12136e+00
       O -2.78642e-01  9.93713e+00  7.58156e+00
       H -1.79498e+00  1.09426e+01  7.25459e+00
       H  1.18834e+00  1.09658e+01  7.12145e+00
       O -2.94462e-01  5.18993e+00  6.13575e+00
       H -1.02485e-01  5.20444e+00  4.31854e+00
       H -2.95928e-01  6.98677e+00  6.69031e+00
       O  3.95461e+00  1.25493e+01  6.13580e+00
       H  4.14651e+00  1.25638e+01  4.31854e+00
       H  3.95313e+00  1.43462e+01  6.69028e+00
192
# CELL(abcABC):   16.99620    29.43815    27.67315    90.00000    90.00000    90.00000  Step:          10  Bead:       0 positions{atomic_unit}  cell{atomic_unit}
       O -8.24580e+00 -9.92872e+00 -1.31863e+01
       H  7.26318e+00 -1.09804e+01 -1.35222e+01
       H -6.56429e+00 -1.11052e+01 -1.35439e+01
       O -3.93120e+00 -2.59371e+00 -1.31987e+01
       H -5.53195e+00 -3.65683e+00 -1.37571e+01
       H -2.31155e+00 -3.66262e+00 -1.35683e+01
       O -3.94411e+00 -1.25740e+01 -7.96685e-01
       H -4.12473e+00 -1.43121e+01 -3.22023e-01
       H -4.23170e+00 -1.24961e+01 -2.58704e+00
       O -8.19427e+00 -5.19993e+00 -7.57516e-01
       H -8.17678e+00 -6.86629e+00 -3.46068e-01
       H -8.50189e+00 -5.02850e+00 -2.51611e+00
       O -4.54564e+00 -1.21411e+01 -6.24971e+00
       H -6.11025e+00 -1.09644e+01 -6.68515e+00
       H -3.16871e+00 -1.11143e+01 -6.69791e+00
       O  8.19990e+00 -4.77928e+00 -6.24657e+00
       H  6.78618e+00 -3.65480e+00 -6.42316e+00
       H -7.27949e+00 -3.68428e+00 -6.68913e+00
       O  8.21366e+00 -9.51996e+00 -7.71119e+00
       H  8.30250e+00 -9.51329e+00 -9.40780e+00
       H  8.33735e+00 -7.77485e+00 -7.18883e+00
       O -4.51187e+00 -2.15552e+00 -7.68578e+00
       H -4.49429e+00 -2.03335e+00 -9.41257e+00
       H -4.64145e+00 -4.14657e-01 -6.95199e+00
       O -8.24078e+00 -9.92888e+00  6.17271e-01
       H  7.33691e+00 -1.10947e+01  1.72506e-01
       H -6.84279e+00 -1.09292e+01  2.05266e-01
       O -3.96923e+00 -2.61973e+00  7.13322e-01
       H -5.31269e+00 -3.41582e+00  2.84790e-01
       H -2.62177e+00 -3.59417e+00  4.45474e-01
       O -3.91400e+00 -1.25339e+01  1.30323e+01
       H -4.14755e+00 -1.43315e+01  1.36467e+01
       H -4.02358e+00 -1.25337e+01  1.12113e+01
       O -8.22313e+00 -5.16692e+00  1.30573e+01
       H -7.99069e+00 -7.00791e+00  1.36559e+01
       H -8.26133e+00 -5.24336e+00  1.12726e+01
       O -4.55534e+00 -1.21348e+01  7.55736e+00
       H -6.06163e+00 -1.13010e+01  7.28717e+00
       H -3.08394e+00 -1.11726e+01  7.20500e+00
       O  8.23040e+00 -4.77542e+00  7.57242e+00
       H  6.83763e+00 -3.62970e+00  7.19965e+00
       H -7.21483e+00 -3.86150e+00  6.79492e+00
       O  8.20387e+00 -9.45826e+00  6.12276e+00
       H  8.16905e+00 -9.46363e+00  4.22848e+00
       H  8.20785e+00 -7.63648e+00  6.51077e+00
       O -4.51719e+00 -2.16233e+00  6.14671e+00
       H -4.29569e+00 -2.38072e+00  4.35676e+00
       H -4.54870e+00 -4.51477e-01  6.64803e+00
       O -8.18055e+00  4.79302e+00 -1.32233e+01
       H  7.14952e+00  3.73255e+00 -1.36409e+01
       H -6.86678e+00  3.72599e+00 -1.34142e+01
       O -3.97509e+00  1.21386e+01 -1.31674e+01
       H -5.34744e+00  1.12591e+01 -1.35532e+01
       H -2.49450e+00  1.11877e+01 -1.33947e+01
       O -3.94199e+00  2.14390e+00 -7.76181e-01
       H -4.07743e+00  5.18572e-01 -3.35117e-01
       H -4.00370e+00  2.10139e+00 -2.54008e+00
       O -8.26723e+00  9.54758e+00 -7.98081e-01
       H -8.37337e+00  7.65141e+00 -3.19387e-01
       H -8.38575e+00  9.59505e+00 -2.67458e+00
       O -4.50860e+00  2.56552e+00 -6.24168e+00
       H -5.96899e+00  3.51703e+00 -6.69368e+00
       H -3.10766e+00  3.46517e+00 -6.83813e+00
       O  8.20066e+00  9.94390e+00 -6.26368e+00
       H  6.69146e+00  1.10191e+01 -6.59703e+00
       H -7.29342e+00  1.09718e+01 -6.60860e+00
       O  8.23355e+00  5.16468e+00 -7.70504e+00
       H  8.50594e+00  5.33265e+00 -9.48392e+00
       H  8.27457e+00  7.16348e+00 -7.32309e+00
       O -4.54558e+00  1.25322e+01 -7.66646e+00
       H -4.37001e+00  1.25658e+01 -9.43598e+00
       H -4.37034e+00  1.43224e+01 -7.30707e+00
       O -8.22235e+00  4.75940e+00  6.14729e-01
       H  7.45334e+00  3.77597e+00  1.19675e-01
       H -6.96206e+00  3.77500e+00  2.33675e-01
       O -3.95242e+00  1.21676e+01  6.67459e-01
       H -5.34114e+00  1.11199e+01  4.88332e-02
       H -2.49995e+00  1.11164e+01  5.84870e-01
       O -4.00277e+00  2.15813e+00  1.30326e+01
       H -3.82157e+00  2.11708e-01  1.36333e+01
       H -4.15616e+00  2.19644e+00  1.13614e+01
       O -8.25259e+00  9.52455e+00  1.30558e+01
       H -8.48905e+00  7.72012e+00  1.35899e+01
       H -8.46393e+00  9.59689e+00  1.11006e+01
       O -4.50558e+00  2.58719e+00  7.55458e+00
       H -5.98008e+00  3.43920e+00  7.33106e+00
       H -3.00571e+00  3.60964e+00  6.99913e+00
       O  8.24968e+00  9.93186e+00  7.54391e+00
       H  6.70694e+00  1.10960e+01  7.28556e+00
       H -7.24298e+00  1.10095e+01  7.20825e+00
       O  8.19754e+00  5.19418e+00  6.11089e+00
       H  8.44652e+00  5.18113e+00  4.36233e+00
       H  8.26084e+00  6.97723e+00  6.66503e+00
       O -4.54346e+00  1.25944e+01  6.12296e+00
       H -4.47382e+00  1.25191e+01  4.20666e+00
       H -4.65690e+00  1.43087e+01  6.66474e+00
       O  2.48053e-01 -9.88618e+00 -1.31841e+01
       H -1.40754e+00 -1.09512e+01 -1.37481e+01
       H  1.83853e+00 -1.08062e+01 -1.32977e+01
       O  4.51590e+00 -2.57871e+00 -1.31565e+01
       H  3.00939e+00 -3.86827e+00 -1.37922e+01
       H  6.09711e+00 -3.64996e+00 -1.35019e+01
       O  4.53200e+00 -1.25272e+01 -7.37764e-01
       H  4.63245e+00 -1.43052e+01 -3.46487e-01
       H  4.30262e+00 -1.25931e+01 -2.47226e+00
       O  2.69172e-01 -5.15847e+00 -8.12951e-01
       H  1.91942e-01 -6.91162e+00 -2.85088e-01
       H -8.21265e-02 -5.23903e+00 -2.81042e+00
       O  3.98182e+00 -1.20943e+01 -6.26906e+00
       H  2.50322e+00 -1.09797e+01 -6.62084e+00
       H  5.44373e+00 -1.11614e+01 -6.74658e+00
       O -2.81931e-01 -4.81801e+00 -6.26514e+00
       H -1.76733e+00 -3.81295e+00 -6.51173e+00
       H  1.26161e+00 -3.90708e+00 -6.72729e+00
       O -3.36414e-01 -9.53069e+00 -7.67173e+00
       H -1.41787e-01 -9.58632e+00 -9.53597e+00
       H -4.38452e-01 -7.72731e+00 -7.27844e+00
       O  4.03589e+00 -2.22359e+00 -7.75710e+00
       H  3.95193e+00 -1.96860e+00 -9.51751e+00
       H  3.90335e+00 -4.88270e-01 -7.06514e+00
       O  2.26619e-01 -9.95491e+00  6.46130e-01
       H -1.12613e+00 -1.10087e+01  1.23259e-01
       H  1.93004e+00 -1.09677e+01  3.42710e-01
       O  4.52225e+00 -2.55318e+00  7.05152e-01
       H  3.05222e+00 -3.76401e+00  2.39809e-01
       H  6.14620e+00 -3.68525e+00  3.74973e-01
       O  4.55564e+00 -1.25378e+01  1.30884e+01
       H  4.63546e+00 -1.43326e+01  1.36756e+01
       H  4.42621e+00 -1.25959e+01  1.12392e+01
       O  3.09475e-01 -5.19080e+00  1.30718e+01
       H  1.15274e-01 -7.01933e+00  1.35640e+01
       H  1.80343e-01 -5.09589e+00  1.13192e+01
       O  3.95295e+00 -1.21345e+01  7.59628e+00
       H  2.54657e+00 -1.10991e+01  7.28337e+00
       H  5.19726e+00 -1.09829e+01  7.12820e+00
       O -2.97876e-01 -4.81297e+00  7.52105e+00
       H -1.67800e+00 -3.68024e+00  7.35546e+00
       H  1.25445e+00 -3.62349e+00  7.03694e+00
       O -3.05116e-01 -9.50010e+00  6.14324e+00
       H -1.64214e-01 -9.49561e+00  4.20903e+00
       H -1.39979e-01 -7.74933e+00  6.55275e+00
       O  3.97790e+00 -2.15257e+00  6.12631e+00
       H  4.10109e+00 -2.09401e+00  4.13639e+00
       H  3.97247e+00 -3.06355e-01  6.82179e+00
       O  2.43157e-01  4.71430e+00 -1.31496e+01
       H -1.13157e+00  3.80349e+00 -1.37008e+01
       H  1.64615e+00  3.76165e+00 -1.34882e+01
       O  4.53688e+00  1.21051e+01 -1.31892e+01
       H  3.08837e+00  1.11565e+01 -1.36827e+01
       H  6.18480e+00  1.12281e+01 -1.36481e+01
       O  4.56312e+00  2.15550e+00 -8.05636e-01
       H  4.60114e+00  4.14441e-01 -9.38105e-02
       H  4.11153e+00  2.24511e+00 -2.62929e+00
       O  2.64839e-01  9.54960e+00 -7.63353e-01
       H  4.88811e-01  7.61471e+00 -3.42008e-01
       H  3.35711e-01  9.51205e+00 -2.57301e+00
       O  3.95704e+00  2.60761e+00 -6.21012e+00
       H  2.55256e+00  3.38700e+00 -6.48937e+00
       H  5.41270e+00  3.57081e+00 -6.67081e+00
       O -2.54966e-01  9.93411e+00 -6.23044e+00
       H -1.79982e+00  1.09748e+01 -6.74609e+00
       H  1.20802e+00  1.09082e+01 -6.81893e+00
       O -2.78657e-01  5.16054e+00 -7.70366e+00
       H  5.08695e-02  5.26226e+00 -9.63541e+00
       H -3.87078e-01  6.83697e+00 -7.13406e+00
       O  3.96362e+00  1.25427e+01 -7.66613e+00
       H  4.11882e+00  1.24748e+01 -9.47348e+00
       H  3.88804e+00  1.41541e+01 -7.17229e+00
       O  2.82603e-01  4.81180e+00  6.11419e-01
       H -1.04316e+00  3.60398e+00  1.00834e-01
       H  1.98224e+00  3.69653e+00  3.64982e-01
       O  4.52092e+00  1.21554e+01  7.04064e-01
       H  3.10058e+00  1.09539e+01  2.60101e-01
       H  6.14192e+00  1.12264e+01  2.57679e-01
       O  4.52689e+00  2.18903e+00  1.30886e+01
       H  4.52332e+00  5.64635e-01  1.36162e+01
       H  4.37740e+00  2.04236e+00  1.11826e+01
       O  2.90125e-01  9.51690e+00  1.30016e+01
       H  3.03349e-01  7.60579e+00  1.36792e+01
       H  1.13059e-01  9.48826e+00  1.13580e+01
       O  3.96253e+00  2.58609e+00  7.53928e+00
       H  2.43476e+00  3.55804e+00  7.17838e+00
       H  5.41970e+00  3.52143e+00  7.03966e+00
       O -2.64041e-01  9.94131e+00  7.56474e+00
       H -1.87112e+00  1.08721e+01  7.28696e+00
       H  9.44775e-01  1.08648e+01  7.01019e+00
       O -3.12919e-01  5.19454e+00  6.16354e+00
       H -1.18845e-01  5.30897e+00  4.34662e+00
       H -1.49371e-01  6.97657e+00  6.50511e+00
       O  3.95100e+00  1.26028e+01  6.10924e+00
       H  3.90876e+00  1.26054e+01  4.26967e+00
       H  3.89719e+00  1.43535e+01  6.62551e+00
192
# CELL(abcABC):   16.99620    29.43815    27.67315    90.00000    90.00000    90.00000  Step:          20  Bead:       0 positions{atomic_unit}  cell{atomic_unit}
       O -8.21696e+00 -9.94159e+00 -1.31841e+01
       H  7.27319e+00 -1.08646e+01 -1.35903e+01
       H -6.69053e+00 -1.14211e+01 -1.35566e+01
       O -3.90565e+00 -2.59228e+00 -1.32043e+01
       H -5.51656e+00 -3.49868e+00 -1.37910e+01
       H -2.30862e+00 -3.76284e+00 -1.35345e+01
       O -3.89591e+00 -1.25714e+01 -8.07472e-01
       H -4.12713e+00 -1.42159e+01 -4.93652e-01
       H -4.23018e+00 -1.25423e+01 -2.63971e+00
       O -8.18329e+00 -5.18465e+00 -7.52311e-01
       H -8.11978e+00 -7.06070e+00 -2.64714e-01
       H -8.38961e+00 -4.92407e+00 -2.47262e+00
       O -4.54101e+00 -1.21716e+01 -6.21878e+00
       H -6.09408e+00 -1.08869e+01 -6.73133e+00
       H -3.15688e+00 -1.11045e+01 -6.55713e+00
       O  8.18408e+00 -4.79288e+00 -6.26718e+00
       H  6.66816e+00 -3.59768e+00 -6.40088e+00
       H -7.31711e+00 -3.80420e+00 -6.83491e+00
       O  8.20208e+00 -9.50132e+00 -7.68095e+00
       H  8.23498e+00 -9.45222e+00 -9.54370e+00
       H  8.29277e+00 -7.99028e+00 -7.23354e+00
       O -4.48839e+00 -2.10950e+00 -7.67871e+00
       H -4.35391e+00 -1.91057e+00 -9.41430e+00
       H -4.67627e+00 -3.49764e-01 -7.00195e+00
       O -8.23125e+00 -9.89884e+00  6.14243e-01
       H  7.11324e+00 -1.11714e+01  4.61267e-02
       H -6.78088e+00 -1.09142e+01  1.94300e-01
       O -4.00536e+00 -2.63103e+00  7.12624e-01
       H -5.36825e+00 -3.36790e+00  2.25460e-02
       H -2.71058e+00 -3.67254e+00  4.41261e-01
       O -3.91850e+00 -1.24944e+01  1.30536e+01
       H -4.15687e+00 -1.43123e+01  1.36156e+01
       H -4.15873e+00 -1.25645e+01  1.12624e+01
       O -8.25071e+00 -5.17387e+00  1.30593e+01
       H -7.95731e+00 -6.93296e+00  1.35917e+01
       H -8.13985e+00 -5.16980e+00  1.12577e+01
       O -4.57108e+00 -1.21574e+01  7.56178e+00
       H -6.10559e+00 -1.14220e+01  7.36278e+00
       H -3.00559e+00 -1.11162e+01  7.27796e+00
       O  8.25709e+00 -4.79128e+00  7.52897e+00
       H  7.03038e+00 -3.70855e+00  7.27154e+00
       H -7.17064e+00 -3.92904e+00  6.75701e+00
       O  8.22148e+00 -9.47466e+00  6.13844e+00
       H  8.23552e+00 -9.60205e+00  4.25479e+00
       H  8.14657e+00 -7.47255e+00  6.61810e+00
       O -4.49814e+00 -2.18700e+00  6.13628e+00
       H -4.21135e+00 -2.39162e+00  4.26712e+00
       H -4.34415e+00 -3.97094e-01  6.72203e+00
       O -8.15985e+00  4.80228e+00 -1.32188e+01
       H  7.14933e+00  3.74556e+00 -1.35009e+01
       H -6.78211e+00  3.65465e+00 -1.33342e+01
       O -3.97235e+00  1.21594e+01 -1.31415e+01
       H -5.40969e+00  1.11803e+01 -1.37400e+01
       H -2.59121e+00  1.11419e+01 -1.34991e+01
       O -3.92939e+00  2.13736e+00 -8.24537e-01
       H -4.18099e+00  5.18914e-01 -4.54825e-01
       H -4.08137e+00  2.02805e+00 -2.62990e+00
       O -8.25849e+00  9.58272e+00 -7.67390e-01
       H -8.19908e+00  7.52872e+00 -2.34084e-01
       H -8.35219e+00  9.45775e+00 -2.83086e+00
       O -4.51224e+00  2.53712e+00 -6.23545e+00
       H -6.03827e+00  3.53321e+00 -6.67370e+00
       H -3.17360e+00  3.27675e+00 -6.89196e+00
       O  8.20471e+00  9.95016e+00 -6.24649e+00
       H  6.63226e+00  1.10538e+01 -6.61887e+00
       H -7.42707e+00  1.09000e+01 -6.59498e+00
       O  8.24420e+00  5.17237e+00 -7.68707e+00
       H  8.45715e+00  5.31646e+00 -9.48560e+00
       H  8.28453e+00  7.17279e+00 -7.24978e+00
       O -4.53496e+00  1.25792e+01 -7.67414e+00
       H -4.49813e+00  1.23562e+01 -9.54506e+00
       H -4.14763e+00  1.43548e+01 -7.40912e+00
       O -8.22488e+00  4.79653e+00  6.40080e-01
       H  7.45378e+00  3.67041e+00  2.34189e-01
       H -6.85835e+00  3.75363e+00  1.07414e-01
       O -3.97281e+00  1.21370e+01  6.54615e-01
       H -5.40330e+00  1.10988e+01  2.86710e-01
       H -2.62944e+00  1.11021e+01  6.49040e-01
       O -4.02479e+00  2.15782e+00  1.30235e+01
       H -3.74850e+00  1.83422e-01  1.37113e+01
       H -4.06239e+00  2.18829e+00  1.11598e+01
       O -8.27084e+00  9.48857e+00  1.30385e+01
       H -8.47042e+00  7.76587e+00  1.35142e+01
       H -8.32993e+00  9.69119e+00  1.11330e+01
       O -4.54242e+00  2.58043e+00  7.57514e+00
       H -5.99751e+00  3.45749e+00  7.21680e+00
       H -2.89706e+00  3.50290e+00  7.17197e+00
       O  8.26156e+00  9.91995e+00  7.54077e+00
       H  6.76737e+00  1.11619e+01  7.36114e+00
       H -7.28319e+00  1.10749e+01  7.23896e+00
       O  8.20910e+00  5.19699e+00  6.14398e+00
       H  8.45623e+00  5.25947e+00  4.34055e+00
       H  8.21728e+00  6.94729e+00  6.59516e+00
       O -4.55360e+00  1.25992e+01  6.14918e+00
       H -4.63148e+00  1.26349e+01  4.26198e+00
       H -4.58195e+00  1.43488e+01  6.68200e+00
       O  2.54477e-01 -9.88511e+00 -1.31450e+01
       H -1.55982e+00 -1.11057e+01 -1.36936e+01
       H  1.97686e+00 -1.08074e+01 -1.31826e+01
       O  4.53927e+00 -2.56937e+00 -1.31468e+01
       H  3.06912e+00 -3.84211e+00 -1.36466e+01
       H  6.19433e+00 -3.70804e+00 -1.35514e+01
       O  4.56599e+00 -1.25491e+01 -7.03308e-01
       H  4.54978e+00 -1.43660e+01 -4.03488e-01
       H  4.31725e+00 -1.25283e+01 -2.44065e+00
       O  2.91381e-01 -5.13085e+00 -8.07527e-01
       H  2.97109e-01 -6.97597e+00 -2.99427e-01
       H -1.76045e-01 -5.19515e+00 -2.78544e+00
       O  3.94992e+00 -1.20910e+01 -6.24370e+00
       H  2.46214e+00 -1.08661e+01 -6.53613e+00
       H  5.45696e+00 -1.13094e+01 -6.67327e+00
       O -3.08875e-01 -4.83423e+00 -6.23947e+00
       H -1.82048e+00 -3.75840e+00 -6.41920e+00
       H  1.48396e+00 -3.90306e+00 -6.62068e+00
       O -3.77431e-01 -9.54634e+00 -7.71335e+00
       H -1.62324e-01 -9.72332e+00 -9.55601e+00
       H -3.89319e-01 -7.69727e+00 -7.25262e+00
       O  4.04187e+00 -2.21710e+00 -7.80832e+00
       H  4.17844e+00 -2.05325e+00 -9.40542e+00
       H  4.09169e+00 -3.52197e-01 -7.08868e+00
       O  1.78457e-01 -9.94200e+00  6.97803e-01
       H -1.27825e+00 -1.09763e+01  1.01246e-01
       H  1.88386e+00 -1.09703e+01  3.99457e-01
       O  4.50703e+00 -2.56628e+00  7.26632e-01
       H  3.06177e+00 -3.77365e+00  3.12165e-01
       H  6.03285e+00 -3.66498e+00  3.29938e-01
       O  4.55837e+00 -1.25332e+01  1.30824e+01
       H  4.67720e+00 -1.42925e+01  1.37418e+01
       H  4.53247e+00 -1.27607e+01  1.12009e+01
       O  3.52896e-01 -5.20289e+00  1.30556e+01
       H  1.36925e-01 -7.28026e+00  1.35964e+01
       H -1.56741e-02 -5.03595e+00  1.12713e+01
       O  3.96066e+00 -1.21541e+01  7.56337e+00
       H  2.67791e+00 -1.09268e+01  7.28021e+00
       H  5.25225e+00 -1.10059e+01  7.27332e+00
       O -3.16205e-01 -4.82495e+00  7.48254e+00
       H -1.72995e+00 -3.55621e+00  7.22601e+00
       H  1.42706e+00 -3.46598e+00  6.98900e+00
       O -3.20283e-01 -9.52087e+00  6.16940e+00
       H -1.28289e-01 -9.50661e+00  4.17206e+00
       H -1.37370e-01 -7.76584e+00  6.65841e+00
       O  3.97279e+00 -2.13562e+00  6.11357e+00
       H  4.28569e+00 -1.92383e+00  4.27719e+00
       H  4.11659e+00 -3.47647e-01  6.88043e+00
       O  2.46073e-01  4.70805e+00 -1.31033e+01
       H -1.13221e+00  3.86238e+00 -1.36298e+01
       H  1.77962e+00  3.76953e+00 -1.34747e+01
       O  4.52284e+00  1.20958e+01 -1.31805e+01
       H  3.11097e+00  1.10492e+01 -1.37538e+01
       H  6.22856e+00  1.13515e+01 -1.35634e+01
       O  4.51425e+00  2.16128e+00 -8.26320e-01
       H  4.54275e+00  4.21849e-01 -1.83965e-01
       H  4.08001e+00  2.36069e+00 -2.52764e+00
       O  2.53957e-01  9.52737e+00 -7.23415e-01
       H  5.54503e-01  7.54249e+00 -3.73161e-01
       H  2.23100e-01  9.50216e+00 -2.51015e+00
       O  3.99616e+00  2.59445e+00 -6.19371e+00
       H  2.38850e+00  3.38064e+00 -6.59726e+00
       H  5.45503e+00  3.76706e+00 -6.50262e+00
       O -2.39814e-01  9.94957e+00 -6.24001e+00
       H -1.82634e+00  1.10173e+01 -6.88456e+00
       H  1.30316e+00  1.08687e+01 -6.97305e+00
       O -2.79922e-01  5.18778e+00 -7.67461e+00
       H -1.22985e-02  5.44880e+00 -9.44498e+00
       H -2.61168e-01  6.98310e+00 -7.24552e+00
       O  3.97474e+00  1.25485e+01 -7.64951e+00
       H  4.03564e+00  1.25590e+01 -9.40405e+00
       H  3.89725e+00  1.42351e+01 -7.26284e+00
       O  2.69006e-01  4.75976e+00  6.16885e-01
       H -1.02044e+00  3.37686e+00  1.57751e-01
       H  2.06944e+00  3.63908e+00  4.50028e-01
       O  4.56182e+00  1.21380e+01  6.70619e-01
       H  3.00884e+00  1.09100e+01  2.59064e-01
       H  6.21897e+00  1.12376e+01  2.95144e-01
       O  4.55035e+00  2.21220e+00  1.30896e+01
       H  4.59946e+00  5.90096e-01  1.38248e+01
       H  4.30028e+00  1.98084e+00  1.11543e+01
       O  2.95494e-01  9.48463e+00  1.29695e+01
       H  1.10309e-01  7.66095e+00  1.38139e+01
       H -1.09816e-01  9.34311e+00  1.12998e+01
       O  3.96351e+00  2.60183e+00  7.59041e+00
       H  2.47531e+00  3.72914e+00  7.30720e+00
       H  5.47327e+00  3.54424e+00  6.89972e+00
       O -2.54268e-01  9.91823e+00  7.60019e+00
       H -1.99692e+00  1.09954e+01  7.23134e+00
       H  7.99645e-01  1.08246e+01  6.84393e+00
       O -3.36960e-01  5.20612e+00  6.16042e+00
       H -2.06183e-01  5.35210e+00  4.31245e+00
       H -1.14099e-01  6.93710e+00  6.55137e+00
       O  3.95389e+00  1.26109e+01  6.11230e+00
       H  3.92630e+00  1.26735e+01  4.28549e+00
       H  3.86233e+00  1.43439e+01  6.46219e+00
192
# CELL(abcABC):   16.99620    29.43815    27.67315    90.00000    90.00000    90.00000  Step:          30  Bead:       0 positions{atomic_unit}  cell{atomic_unit}
       O -8.19277e+00 -9.95819e+00 -1.31269e+01
       H  7.35538e+00 -1.07379e+01 -1.36334e+01
       H -6.76756e+00 -1.14281e+01 -1.35023e+01
       O -3.88599e+00 -2.57751e+00 -1.31455e+01
       H -5.46212e+00 -3.71715e+00 -1.37290e+01
       H -2.49856e+00 -3.80951e+00 -1.33994e+01
       O -3.85318e+00 -1.25637e+01 -8.04463e-01
       H -4.15153e+00 -1.43915e+01 -3.75138e-01
       H -4.09542e+00 -1.25125e+01 -2.62139e+00
       O -8.16610e+00 -5.19062e+00 -7.73761e-01
       H -8.12951e+00 -7.11140e+00 -3.06408e-01
       H -8.38178e+00 -5.02217e+00 -2.46779e+00
       O -4.55505e+00 -1.21932e+01 -6.19631e+00
       H -6.17246e+00 -1.10405e+01 -6.72616e+00
       H -2.99922e+00 -1.10110e+01 -6.65254e+00
       O  8.17851e+00 -4.81129e+00 -6.27302e+00
       H  6.81529e+00 -3.52700e+00 -6.38021e+00
       H -7.27991e+00 -3.86107e+00 -6.94503e+00
       O  8.18703e+00 -9.46956e+00 -7.70760e+00
       H  8.20676e+00 -9.47511e+00 -9.61086e+00
       H  8.27995e+00 -7.87216e+00 -7.15844e+00
       O -4.51464e+00 -2.07233e+00 -7.69221e+00
       H -4.37102e+00 -1.94962e+00 -9.58188e+00
       H -4.58130e+00 -2.23761e-01 -6.83953e+00
       O -8.22960e+00 -9.93244e+00  6.19170e-01
       H  7.13056e+00 -1.11408e+01  2.00538e-02
       H -6.59871e+00 -1.08786e+01  3.48730e-01
       O -4.01654e+00 -2.61471e+00  7.22678e-01
       H -5.38031e+00 -3.38331e+00 -1.27104e-02
       H -2.70432e+00 -3.62048e+00  4.77101e-01
       O -3.94210e+00 -1.24819e+01  1.30586e+01
       H -4.19452e+00 -1.41919e+01  1.37342e+01
       H -4.27539e+00 -1.27043e+01  1.10565e+01
       O -8.23359e+00 -5.18397e+00  1.30369e+01
       H -7.91874e+00 -6.98054e+00  1.36537e+01