192
# CELL(abcABC):   16.99620    29.43815    27.67315    90.00000    90.00000    90.00000  Step:           0  Bead:      24 positions{atomic_unit}  cell{atomic_unit}
       O -8.22215e+00 -9.94239e+00 -1.31733e+01
       H  7.30664e+00 -1.09711e+01 -1.36322e+01
       H -6.70615e+00 -1.09482e+01 -1.35006e+01
       O -3.97298e+00 -2.58228e+00 -1.31734e+01
       H -5.44033e+00 -3.61131e+00 -1.36317e+01
       H -2.45697e+00 -3.58820e+00 -1.35005e+01
       O -3.95756e+00 -1.25543e+01 -7.82386e-01
       H -3.95604e+00 -1.43515e+01 -2.29143e-01
       H -4.14759e+00 -1.25671e+01 -2.59983e+00
       O -8.20667e+00 -5.19495e+00 -7.82227e-01
       H -8.20527e+00 -6.99211e+00 -2.28860e-01
       H -8.39642e+00 -5.20788e+00 -2.59970e+00
       O -4.52495e+00 -1.21366e+01 -6.25523e+00
       H -6.04104e+00 -1.11308e+01 -6.58223e+00
       H -3.05766e+00 -1.11077e+01 -6.71383e+00
       O  8.22247e+00 -4.77716e+00 -6.25561e+00
       H  6.70639e+00 -3.77128e+00 -6.58235e+00
       H -7.30644e+00 -3.74813e+00 -6.71411e+00
       O  8.20650e+00 -9.52435e+00 -7.70064e+00
       H  8.39647e+00 -9.51190e+00 -9.51809e+00
       H  8.20529e+00 -7.72704e+00 -7.14768e+00
       O -4.54027e+00 -2.16431e+00 -7.70075e+00
       H -4.35006e+00 -2.15153e+00 -9.51816e+00
       H -4.54166e+00 -3.67089e-01 -7.14744e+00
       O -8.22211e+00 -9.94193e+00  6.63469e-01
       H  7.30672e+00 -1.09707e+01  2.04633e-01
       H -6.70609e+00 -1.09478e+01  3.36365e-01
       O -3.97290e+00 -2.58257e+00  6.63081e-01
       H -5.44032e+00 -3.61148e+00  2.04655e-01
       H -2.45688e+00 -3.58848e+00  3.35971e-01
       O -3.95760e+00 -1.25545e+01  1.30538e+01
       H -3.95614e+00 -1.43517e+01  1.36071e+01
       H -4.14757e+00 -1.25673e+01  1.12363e+01
       O -8.20656e+00 -5.19529e+00  1.30545e+01
       H -8.20517e+00 -6.99250e+00  1.36078e+01
       H -8.39634e+00 -5.20824e+00  1.12370e+01
       O -4.52490e+00 -1.21367e+01  7.58138e+00
       H -6.04102e+00 -1.11309e+01  7.25435e+00
       H -3.05757e+00 -1.11078e+01  7.12272e+00
       O  8.22232e+00 -4.77760e+00  7.58065e+00
       H  6.70627e+00 -3.77169e+00  7.25392e+00
       H -7.30657e+00 -3.74862e+00  7.12211e+00
       O  8.20656e+00 -9.52478e+00  6.13597e+00
       H  8.39651e+00 -9.51229e+00  4.31849e+00
       H  8.20527e+00 -7.72747e+00  6.68889e+00
       O -4.54025e+00 -2.16471e+00  6.13560e+00
       H -4.34999e+00 -2.15183e+00  4.31818e+00
       H -4.54168e+00 -3.67533e-01  6.68897e+00
       O -8.22212e+00  4.77724e+00 -1.31733e+01
       H  7.30671e+00  3.74833e+00 -1.36320e+01
       H -6.70607e+00  3.77135e+00 -1.35002e+01
       O -3.97288e+00  1.21369e+01 -1.31734e+01
       H -5.44030e+00  1.11079e+01 -1.36317e+01
       H -2.45689e+00  1.11310e+01 -1.35006e+01
       O -3.95757e+00  2.16435e+00 -7.82368e-01
       H -3.95607e+00  3.67109e-01 -2.29207e-01
       H -4.14756e+00  2.15166e+00 -2.59983e+00
       O -8.20667e+00  9.52420e+00 -7.81868e-01
       H -8.20527e+00  7.72699e+00 -2.28645e-01
       H -8.39652e+00  9.51128e+00 -2.59932e+00
       O -4.52494e+00  2.58246e+00 -6.25501e+00
       H -6.04100e+00  3.58821e+00 -6.58223e+00
       H -3.05758e+00  3.61139e+00 -6.71360e+00
       O  8.22236e+00  9.94146e+00 -6.25587e+00
       H  6.70631e+00  1.09474e+01 -6.58279e+00
       H -7.30653e+00  1.09705e+01 -6.71435e+00
       O  8.20665e+00  5.19438e+00 -7.70097e+00
       H  8.39659e+00  5.20693e+00 -9.51844e+00
       H  8.20533e+00  6.99167e+00 -7.14797e+00
       O -4.54026e+00  1.25545e+01 -7.70081e+00
       H -4.34992e+00  1.25674e+01 -9.51823e+00
       H -4.54169e+00  1.43517e+01 -7.14749e+00
       O -8.22210e+00  4.77691e+00  6.62996e-01
       H  7.30665e+00  3.74808e+00  2.04431e-01
       H -6.70613e+00  3.77091e+00  3.36028e-01
       O -3.97279e+00  1.21369e+01  6.63306e-01
       H -5.44019e+00  1.11079e+01  2.05006e-01
       H -2.45681e+00  1.11309e+01  3.36133e-01
       O -3.95757e+00  2.16479e+00  1.30545e+01
       H -3.95616e+00  3.67575e-01  1.36077e+01
       H -4.14769e+00  2.15200e+00  1.12370e+01
       O -8.20659e+00  9.52434e+00  1.30546e+01
       H -8.20522e+00  7.72713e+00  1.36079e+01
       H -8.39644e+00  9.51145e+00  1.12371e+01
       O -4.52499e+00  2.58228e+00  7.58148e+00
       H -6.04100e+00  3.58814e+00  7.25437e+00
       H -3.05766e+00  3.61126e+00  7.12297e+00
       O  8.22229e+00  9.94203e+00  7.58108e+00
       H  6.70627e+00  1.09480e+01  7.25419e+00
       H -7.30655e+00  1.09710e+01  7.12260e+00
       O  8.20668e+00  5.19493e+00  6.13567e+00
       H  8.39670e+00  5.20749e+00  4.31823e+00
       H  8.20535e+00  6.99219e+00  6.68874e+00
       O -4.54018e+00  1.25546e+01  6.13603e+00
       H -4.34989e+00  1.25674e+01  4.31861e+00
       H -4.54161e+00  1.43518e+01  6.68925e+00
       O  2.75877e-01 -9.94198e+00 -1.31737e+01
       H -1.19147e+00 -1.09709e+01 -1.36323e+01
       H  1.79191e+00 -1.09478e+01 -1.35009e+01
       O  4.52479e+00 -2.58220e+00 -1.31736e+01
       H  3.05750e+00 -3.61120e+00 -1.36322e+01
       H  6.04084e+00 -3.58815e+00 -1.35003e+01
       O  4.54038e+00 -1.25538e+01 -7.82378e-01
       H  4.54166e+00 -1.43510e+01 -2.29173e-01
       H  4.35042e+00 -1.25666e+01 -2.59983e+00
       O  2.91382e-01 -5.19489e+00 -7.82498e-01
       H  2.92775e-01 -6.99208e+00 -2.29179e-01
       H  1.01240e-01 -5.20770e+00 -2.59994e+00
       O  3.97307e+00 -1.21369e+01 -6.25482e+00
       H  2.45707e+00 -1.11310e+01 -6.58187e+00
       H  5.44043e+00 -1.11080e+01 -6.71350e+00
       O -2.76167e-01 -4.77714e+00 -6.25484e+00
       H -1.79215e+00 -3.77120e+00 -6.58193e+00
       H  1.19122e+00 -3.74822e+00 -6.71327e+00
       O -2.91294e-01 -9.52406e+00 -7.70061e+00
       H -1.01153e-01 -9.51128e+00 -9.51804e+00
       H -2.92737e-01 -7.72684e+00 -7.14734e+00
       O  3.95740e+00 -2.16468e+00 -7.70029e+00
       H  4.14711e+00 -2.15178e+00 -9.51779e+00
       H  3.95613e+00 -3.67477e-01 -7.14700e+00
       O  2.75838e-01 -9.94166e+00  6.63265e-01
       H -1.19143e+00 -1.09706e+01  2.04532e-01
       H  1.79197e+00 -1.09474e+01  3.36068e-01
       O  4.52471e+00 -2.58218e+00  6.62891e-01
       H  3.05743e+00 -3.61117e+00  2.04240e-01
       H  6.04080e+00 -3.58806e+00  3.36089e-01
       O  4.54037e+00 -1.25543e+01  1.30539e+01
       H  4.54173e+00 -1.43516e+01  1.36070e+01
       H  4.35050e+00 -1.25670e+01  1.12364e+01
       O  2.91297e-01 -5.19502e+00  1.30541e+01
       H  2.92732e-01 -6.99225e+00  1.36074e+01
       H  1.01206e-01 -5.20786e+00  1.12367e+01
       O  3.97310e+00 -1.21368e+01  7.58177e+00
       H  2.45707e+00 -1.11309e+01  7.25464e+00
       H  5.44051e+00 -1.11080e+01  7.12302e+00
       O -2.76100e-01 -4.77767e+00  7.58136e+00
       H -1.79210e+00 -3.77177e+00  7.25428e+00
       H  1.19125e+00 -3.74871e+00  7.12290e+00
       O -2.91340e-01 -9.52458e+00  6.13593e+00
       H -1.01282e-01 -9.51181e+00  4.31852e+00
       H -2.92762e-01 -7.72734e+00  6.68916e+00
       O  3.95728e+00 -2.16475e+00  6.13602e+00
       H  4.14704e+00 -2.15175e+00  4.31853e+00
       H  3.95603e+00 -3.67615e-01  6.68942e+00
       O  2.75872e-01  4.77775e+00 -1.31735e+01
       H -1.19145e+00  3.74868e+00 -1.36320e+01
       H  1.79192e+00  3.77189e+00 -1.35005e+01
       O  4.52473e+00  1.21369e+01 -1.31737e+01
       H  3.05744e+00  1.11080e+01 -1.36325e+01
       H  6.04082e+00  1.11311e+01 -1.35004e+01
       O  4.54033e+00  2.16480e+00 -7.82502e-01
       H  4.54166e+00  3.67553e-01 -2.29384e-01
       H  4.35052e+00  2.15214e+00 -2.60000e+00
       O  2.91442e-01  9.52423e+00 -7.82681e-01
       H  2.92837e-01  7.72701e+00 -2.29452e-01
       H  1.01299e-01  9.51146e+00 -2.60013e+00
       O  3.97319e+00  2.58230e+00 -6.25496e+00
       H  2.45717e+00  3.58819e+00 -6.58198e+00
       H  5.44056e+00  3.61109e+00 -6.71379e+00
       O -2.76125e-01  9.94167e+00 -6.25515e+00
       H -1.79212e+00  1.09476e+01 -6.58222e+00
       H  1.19126e+00  1.09706e+01 -6.71377e+00
       O -2.91369e-01  5.19475e+00 -7.70046e+00
       H -1.01380e-01  5.20765e+00 -9.51793e+00
       H -2.92793e-01  6.99195e+00 -7.14718e+00
       O  3.95737e+00  1.25543e+01 -7.70076e+00
       H  4.14703e+00  1.25673e+01 -9.51824e+00
       H  3.95606e+00  1.43514e+01 -7.14726e+00
       O  2.75794e-01  4.77734e+00  6.62959e-01
       H -1.19152e+00  3.74832e+00  2.04499e-01
       H  1.79186e+00  3.77147e+00  3.35887e-01
       O  4.52464e+00  1.21373e+01  6.62988e-01
       H  3.05745e+00  1.11082e+01  2.04218e-01
       H  6.04076e+00  1.11314e+01  3.36450e-01
       O  4.54041e+00  2.16499e+00  1.30543e+01
       H  4.54178e+00  3.67749e-01  1.36074e+01
       H  4.35054e+00  2.15228e+00  1.12368e+01
       O  2.91308e-01  9.52457e+00  1.30538e+01
       H  2.92715e-01  7.72735e+00  1.36071e+01
       H  1.01225e-01  9.51181e+00  1.12363e+01
       O  3.97315e+00  2.58235e+00  7.58152e+00
       H  2.45713e+00  3.58829e+00  7.25455e+00
       H  5.44048e+00  3.61122e+00  7.12279e+00
       O -2.76008e-01  9.94202e+00  7.58171e+00
       H -1.79205e+00  1.09479e+01  7.25468e+00
       H  1.19134e+00  1.09710e+01  7.12317e+00
       O -2.91416e-01  5.19510e+00  6.13606e+00
       H -1.01371e-01  5.20795e+00  4.31863e+00
       H -2.92777e-01  6.99228e+00  6.68938e+00
       O  3.95729e+00  1.25546e+01  6.13612e+00
       H  4.14688e+00  1.25676e+01  4.31864e+00
       H  3.95603e+00  1.43518e+01  6.68952e+00
192
# CELL(abcABC):   16.99620    29.43815    27.67315    90.00000    90.00000    90.00000  Step:          10  Bead:      24 positions{atomic_unit}  cell{atomic_unit}
       O -8.22004e+00 -9.94326e+00 -1.31271e+01
       H  7.21831e+00 -1.09613e+01 -1.36687e+01
       H -6.63111e+00 -1.07550e+01 -1.35997e+01
       O -3.89984e+00 -2.51017e+00 -1.31481e+01
       H -5.32192e+00 -3.88779e+00 -1.34305e+01
       H -2.17788e+00 -3.33277e+00 -1.35881e+01
       O -3.96414e+00 -1.25311e+01 -8.60632e-01
       H -3.80188e+00 -1.41395e+01 -3.09145e-01
       H -4.11134e+00 -1.26039e+01 -2.69865e+00
       O -8.23585e+00 -5.27511e+00 -7.67512e-01
       H -8.35517e+00 -6.92133e+00 -1.07983e-01
       H -8.32970e+00 -5.00609e+00 -2.32876e+00
       O -4.56841e+00 -1.21512e+01 -6.26498e+00
       H -5.85067e+00 -1.09233e+01 -6.62304e+00
       H -2.82698e+00 -1.13387e+01 -6.71553e+00
       O  8.26198e+00 -4.76219e+00 -6.25891e+00
       H  6.70493e+00 -4.13964e+00 -6.44587e+00
       H -7.25264e+00 -3.71529e+00 -6.78607e+00
       O  8.21396e+00 -9.52673e+00 -7.70561e+00
       H  8.49685e+00 -9.53006e+00 -9.61796e+00
       H  7.92388e+00 -7.80000e+00 -6.98625e+00
       O -4.55316e+00 -2.18032e+00 -7.64735e+00
       H -4.09799e+00 -2.17339e+00 -9.41176e+00
       H -4.70165e+00 -5.43753e-01 -6.97090e+00
       O -8.25180e+00 -9.85253e+00  6.48148e-01
       H  7.44271e+00 -1.11028e+01  1.77227e-01
       H -6.61640e+00 -1.07525e+01  2.82673e-01
       O -3.92674e+00 -2.52954e+00  7.50338e-01
       H -5.40995e+00 -3.63856e+00  1.70934e-01
       H -2.50206e+00 -3.57530e+00  5.23504e-01
       O -4.04263e+00 -1.25119e+01  1.30802e+01
       H -4.04074e+00 -1.42351e+01  1.37736e+01
       H -4.30815e+00 -1.24572e+01  1.10407e+01
       O -8.18342e+00 -5.15552e+00  1.30771e+01
       H -8.03790e+00 -7.24083e+00  1.33645e+01
       H -8.30454e+00 -5.22436e+00  1.12031e+01
       O -4.52351e+00 -1.21700e+01  7.55999e+00
       H -6.32463e+00 -1.08702e+01  7.02296e+00
       H -3.11942e+00 -1.10342e+01  6.91689e+00
       O  8.19157e+00 -4.75832e+00  7.56113e+00
       H  6.38293e+00 -3.73683e+00  7.38886e+00
       H -7.25243e+00 -3.69236e+00  6.94085e+00
       O  8.17347e+00 -9.46118e+00  6.18304e+00
       H  8.44332e+00 -9.57591e+00  4.28483e+00
       H  8.37526e+00 -7.86582e+00  6.80511e+00
       O -4.50799e+00 -2.13157e+00  6.14697e+00
       H -4.42083e+00 -2.15427e+00  4.53612e+00
       H -4.79438e+00 -2.37149e-01  6.74480e+00
       O -8.23915e+00  4.80260e+00 -1.31456e+01
       H  7.39533e+00  3.60459e+00 -1.35026e+01
       H -6.83527e+00  3.73331e+00 -1.36651e+01
       O -4.02707e+00  1.21665e+01 -1.31826e+01
       H -5.63439e+00  1.11238e+01 -1.34162e+01
       H -2.36774e+00  1.11970e+01 -1.35690e+01
       O -3.92556e+00  2.17098e+00 -8.22213e-01
       H -3.98120e+00  3.32340e-01 -5.08456e-01
       H -4.18066e+00  2.28920e+00 -2.83674e+00
       O -8.19961e+00  9.49108e+00 -7.68353e-01
       H -8.00532e+00  7.66140e+00 -1.90429e-01
       H -8.42543e+00  9.36499e+00 -2.55612e+00
       O -4.53402e+00  2.61411e+00 -6.26061e+00
       H -6.11436e+00  3.69240e+00 -6.58308e+00
       H -3.27788e+00  3.73913e+00 -6.72889e+00
       O  8.13061e+00  9.89876e+00 -6.28009e+00
       H  6.49292e+00  1.09685e+01 -6.83940e+00
       H -7.41533e+00  1.10753e+01 -6.60073e+00
       O  8.19660e+00  5.28139e+00 -7.67261e+00
       H  8.54928e+00  5.22501e+00 -9.55645e+00
       H  8.28063e+00  6.96810e+00 -6.83783e+00
       O -4.50602e+00  1.26253e+01 -7.80366e+00
       H -4.18316e+00  1.25792e+01 -9.64932e+00
       H -4.71338e+00  1.43496e+01 -7.09854e+00
       O -8.24247e+00  4.71608e+00  6.33784e-01
       H  7.31104e+00  3.70163e+00  4.23656e-01
       H -6.74452e+00  3.46146e+00  1.02917e-01
       O -3.95644e+00  1.21306e+01  6.64072e-01
       H -5.54620e+00  1.10452e+01  2.32768e-01
       H -2.50573e+00  1.09345e+01  3.63962e-01
       O -3.93010e+00  2.20447e+00  1.30167e+01
       H -3.96362e+00  4.41076e-01  1.37847e+01
       H -4.39602e+00  2.14046e+00  1.12904e+01
       O -8.23290e+00  9.46655e+00  1.30810e+01
       H -8.10837e+00  7.47266e+00  1.35123e+01
       H -8.70361e+00  9.47636e+00  1.11794e+01
       O -4.52814e+00  2.58816e+00  7.62725e+00
       H -6.16191e+00  3.16794e+00  7.51867e+00
       H -2.95761e+00  3.54954e+00  7.20796e+00
       O  8.22665e+00  9.95491e+00  7.52341e+00
       H  6.70669e+00  1.13770e+01  7.41648e+00
       H -7.21666e+00  1.09448e+01  7.03053e+00
       O  8.22012e+00  5.15312e+00  6.17198e+00
       H  8.51384e+00  5.41226e+00  4.23574e+00
       H  8.00082e+00  6.84393e+00  6.62165e+00
       O -4.55527e+00  1.25159e+01  6.13001e+00
       H -4.31762e+00  1.23444e+01  4.33928e+00
       H -4.26066e+00  1.43098e+01  6.63915e+00
       O  2.93647e-01 -9.80217e+00 -1.32166e+01
       H -1.25853e+00 -1.08749e+01 -1.35623e+01
       H  1.87750e+00 -1.09927e+01 -1.34034e+01
       O  4.54503e+00 -2.66408e+00 -1.32249e+01
       H  3.07613e+00 -3.61576e+00 -1.37644e+01
       H  6.09815e+00 -3.61191e+00 -1.33487e+01
       O  4.50271e+00 -1.25398e+01 -7.86770e-01
       H  4.56697e+00 -1.43650e+01 -1.56424e-01
       H  4.21798e+00 -1.22797e+01 -2.78866e+00
       O  3.57564e-01 -5.21883e+00 -7.00934e-01
       H  5.90580e-01 -6.88174e+00 -2.37663e-01
       H -1.17756e-01 -5.06788e+00 -2.64007e+00
       O  3.97980e+00 -1.20808e+01 -6.20624e+00
       H  2.54758e+00 -1.12564e+01 -6.52312e+00
       H  5.48811e+00 -1.08619e+01 -6.63593e+00
       O -3.19340e-01 -4.74657e+00 -6.23808e+00
       H -2.00828e+00 -3.82972e+00 -6.57332e+00
       H  1.21156e+00 -3.65175e+00 -6.76317e+00
       O -1.70248e-01 -9.47597e+00 -7.69953e+00
       H -2.61718e-01 -9.54350e+00 -9.64390e+00
       H -1.61958e-01 -7.69492e+00 -7.40996e+00
       O  4.00669e+00 -2.14581e+00 -7.72141e+00
       H  4.15381e+00 -2.17313e+00 -9.37755e+00
       H  4.23814e+00 -6.39505e-02 -7.24226e+00
       O  3.08018e-01 -9.91178e+00  5.48952e-01
       H -1.18928e+00 -1.10101e+01  1.83523e-01
       H  1.66940e+00 -1.10310e+01  3.95167e-01
       O  4.55955e+00 -2.61791e+00  6.19028e-01
       H  3.29540e+00 -3.70656e+00  1.93990e-01
       H  6.02036e+00 -3.80529e+00  2.25764e-01
       O  4.55089e+00 -1.24845e+01  1.30410e+01
       H  4.47562e+00 -1.42723e+01  1.35260e+01
       H  4.50891e+00 -1.25107e+01  1.14491e+01
       O  3.05523e-01 -5.27550e+00  1.31102e+01
       H  2.87173e-01 -7.02827e+00  1.37911e+01
       H  4.22711e-01 -5.31547e+00  1.12907e+01
       O  3.87621e+00 -1.21309e+01  7.53553e+00
       H  2.47706e+00 -1.11391e+01  7.23814e+00
       H  5.54752e+00 -1.10476e+01  7.23271e+00
       O -2.86155e-01 -4.76652e+00  7.52233e+00
       H -1.97572e+00 -3.75440e+00  7.40314e+00
       H  1.44583e+00 -3.74439e+00  7.40089e+00
       O -3.04738e-01 -9.60654e+00  6.14651e+00
       H -5.00045e-01 -9.66344e+00  4.16971e+00
       H -1.53770e-01 -7.54945e+00  6.52636e+00
       O  3.86187e+00 -2.22103e+00  6.14011e+00
       H  4.25400e+00 -2.36146e+00  4.27075e+00
       H  3.88547e+00 -3.34924e-01  6.81190e+00
       O  3.21744e-01  4.82713e+00 -1.31592e+01
       H -1.17288e+00  3.99143e+00 -1.35093e+01
       H  1.84487e+00  3.68795e+00 -1.35489e+01
       O  4.49572e+00  1.21562e+01 -1.31631e+01
       H  3.30799e+00  1.09587e+01 -1.34441e+01
       H  6.00873e+00  1.11484e+01 -1.35248e+01
       O  4.54728e+00  2.12809e+00 -7.42187e-01
       H  4.50734e+00  2.65535e-01 -2.78599e-01
       H  4.47119e+00  2.29625e+00 -2.43791e+00
       O  2.41863e-01  9.57474e+00 -7.90562e-01
       H  3.80578e-01  7.69846e+00 -1.22252e-01
       H  1.03013e-02  9.46553e+00 -2.78042e+00
       O  3.95131e+00  2.54038e+00 -6.20285e+00
       H  2.36311e+00  3.42098e+00 -6.57303e+00
       H  5.71472e+00  3.54347e+00 -6.57768e+00
       O -2.46600e-01  9.98903e+00 -6.16976e+00
       H -1.77700e+00  1.10257e+01 -6.50607e+00
       H  9.57447e-01  1.10571e+01 -6.64684e+00
       O -2.71288e-01  5.17218e+00 -7.63344e+00
       H  1.12856e-01  5.32962e+00 -9.53520e+00
       H -1.72239e-01  7.13463e+00 -7.11339e+00
       O  3.91677e+00  1.25773e+01 -7.74095e+00
       H  4.31921e+00  1.24853e+01 -9.61232e+00
       H  3.82563e+00  1.44324e+01 -7.27776e+00
       O  3.15256e-01  4.84992e+00  6.35181e-01
       H -1.11464e+00  3.72585e+00  4.63353e-01
       H  1.83806e+00  3.63551e+00  4.60697e-01
       O  4.55062e+00  1.20615e+01  6.67350e-01
       H  3.05915e+00  1.11260e+01  2.83826e-01
       H  6.16684e+00  1.11180e+01  4.78080e-01
       O  4.55392e+00  2.19969e+00  1.30897e+01
       H  4.63336e+00  1.78125e-01  1.35786e+01
       H  4.50020e+00  2.40336e+00  1.13100e+01
       O  2.50534e-01  9.54849e+00  1.30670e+01
       H  6.27251e-01  7.57669e+00  1.37914e+01
       H  1.94839e-01  9.44210e+00  1.13454e+01
       O  3.97595e+00  2.56019e+00  7.61247e+00
       H  2.42530e+00  3.41359e+00  7.45371e+00
       H  5.28427e+00  3.62202e+00  7.06338e+00
       O -3.12041e-01  9.94300e+00  7.56518e+00
       H -1.78455e+00  1.09473e+01  7.42418e+00
       H  1.17192e+00  1.09436e+01  7.13674e+00
       O -3.27252e-01  5.20978e+00  6.16898e+00
       H -1.02211e-01  5.55371e+00  4.49877e+00
       H -2.81814e-01  6.96022e+00  6.58063e+00
       O  3.88171e+00  1.26133e+01  6.12296e+00
       H  4.18510e+00  1.25541e+01  4.07252e+00
       H  3.78205e+00  1.42354e+01  6.68282e+00
192
# CELL(abcABC):   16.99620    29.43815    27.67315    90.00000    90.00000    90.00000  Step:          20  Bead:      24 positions{atomic_unit}  cell{atomic_unit}
       O -8.23075e+00 -9.99078e+00 -1.31464e+01
       H  6.95186e+00 -1.09971e+01 -1.31106e+01
       H -6.74107e+00 -1.08065e+01 -1.36392e+01
       O -3.90969e+00 -2.55850e+00 -1.31128e+01
       H -5.32001e+00 -3.96621e+00 -1.33184e+01
       H -2.28859e+00 -3.46767e+00 -1.33215e+01
       O -3.95153e+00 -1.24573e+01 -8.56242e-01
       H -3.89823e+00 -1.43342e+01 -4.51711e-01
       H -4.26425e+00 -1.26148e+01 -2.82517e+00
       O -8.28652e+00 -5.27394e+00 -7.15221e-01
       H -8.05333e+00 -7.02095e+00 -2.42550e-01
       H -8.62092e+00 -5.02210e+00 -2.44381e+00
       O -4.53303e+00 -1.21570e+01 -6.21423e+00
       H -5.78591e+00 -1.10754e+01 -6.76148e+00
       H -2.90044e+00 -1.13919e+01 -6.67608e+00
       O  8.35708e+00 -4.71761e+00 -6.37925e+00
       H  6.95224e+00 -3.89962e+00 -6.53875e+00
       H -7.48833e+00 -3.30605e+00 -6.85164e+00
       O  8.16829e+00 -9.54682e+00 -7.68757e+00
       H  8.61352e+00 -9.43309e+00 -9.73079e+00
       H  7.69074e+00 -7.58323e+00 -7.03465e+00
       O -4.46437e+00 -2.21477e+00 -7.61055e+00
       H -4.14023e+00 -2.08519e+00 -9.39468e+00
       H -4.58783e+00 -5.29882e-01 -6.92894e+00
       O -8.27232e+00 -9.85582e+00  6.15740e-01
       H  7.61065e+00 -1.09396e+01  1.16381e-01
       H -6.68524e+00 -1.07933e+01  1.38050e-02
       O -3.81224e+00 -2.57891e+00  7.59951e-01
       H -5.13070e+00 -4.00788e+00  4.26678e-01
       H -2.44713e+00 -3.76232e+00  6.57461e-01
       O -3.96951e+00 -1.25091e+01  1.30402e+01
       H -4.25454e+00 -1.44744e+01  1.36073e+01
       H -4.33903e+00 -1.25311e+01  1.13529e+01
       O -8.18958e+00 -5.19486e+00  1.31134e+01
       H -8.18392e+00 -7.24718e+00  1.33009e+01
       H -8.42075e+00 -5.30727e+00  1.11417e+01
       O -4.52806e+00 -1.21723e+01  7.63230e+00
       H -6.13058e+00 -1.10547e+01  6.93255e+00
       H -3.34215e+00 -1.09108e+01  7.07534e+00
       O  8.20692e+00 -4.81460e+00  7.57191e+00
       H  6.62012e+00 -3.83284e+00  7.45149e+00
       H -7.13027e+00 -3.46272e+00  7.06945e+00
       O  8.26378e+00 -9.47224e+00  6.19167e+00
       H  8.30720e+00 -9.61971e+00  4.44097e+00
       H  8.59050e+00 -7.87666e+00  6.72962e+00
       O -4.54823e+00 -2.08406e+00  6.15753e+00
       H -4.23649e+00 -2.23717e+00  4.11818e+00
       H -4.75444e+00 -1.74565e-01  6.54126e+00
       O -8.28232e+00  4.68782e+00 -1.32633e+01
       H  7.12844e+00  3.80212e+00 -1.33860e+01
       H -6.69076e+00  3.72041e+00 -1.35384e+01
       O -4.04893e+00  1.21921e+01 -1.32148e+01
       H -5.55140e+00  1.10342e+01 -1.32114e+01
       H -2.35196e+00  1.12548e+01 -1.31562e+01
       O -3.92714e+00  2.18160e+00 -9.14210e-01
       H -4.32242e+00  2.40671e-01 -5.72359e-01
       H -4.13729e+00  2.36747e+00 -2.87309e+00
       O -8.21634e+00  9.49253e+00 -8.18762e-01
       H -7.91843e+00  7.86204e+00 -1.95303e-02
       H -8.30434e+00  9.52513e+00 -2.42284e+00
       O -4.48685e+00  2.62614e+00 -6.21953e+00
       H -5.91671e+00  3.57625e+00 -6.53942e+00
       H -3.21328e+00  4.06971e+00 -6.98604e+00
       O  8.12572e+00  9.85774e+00 -6.24071e+00
       H  6.27731e+00  1.06194e+01 -6.56500e+00
       H -7.43384e+00  1.09029e+01 -6.64214e+00
       O  8.25117e+00  5.25179e+00 -7.70711e+00
       H  8.62501e+00  5.08021e+00 -9.63052e+00
       H  8.20822e+00  7.02953e+00 -6.90542e+00
       O -4.57442e+00  1.25939e+01 -7.75760e+00
       H -4.37176e+00  1.25023e+01 -9.37658e+00
       H -4.81081e+00  1.41928e+01 -7.25743e+00
       O -8.20121e+00  4.69809e+00  6.50303e-01
       H  7.27160e+00  3.89593e+00  3.62498e-01
       H -6.83405e+00  3.50246e+00  2.97991e-01
       O -3.97300e+00  1.20671e+01  6.18822e-01
       H -5.61841e+00  1.11153e+01  4.29233e-01
       H -2.53676e+00  1.09158e+01  5.07526e-01
       O -3.95382e+00  2.17508e+00  1.30288e+01
       H -3.75953e+00  1.78754e-01  1.36991e+01
       H -4.39546e+00  2.03217e+00  1.12989e+01
       O -8.27524e+00  9.47699e+00  1.30660e+01
       H -8.35895e+00  7.63433e+00  1.31351e+01
       H -8.70984e+00  9.68268e+00  1.11726e+01
       O -4.52749e+00  2.60159e+00  7.56525e+00
       H -6.20052e+00  3.42168e+00  7.71704e+00
       H -2.99873e+00  3.54051e+00  6.86104e+00
       O  8.19965e+00  1.00472e+01  7.54841e+00
       H  6.64445e+00  1.14627e+01  7.31122e+00
       H -7.16760e+00  1.10050e+01  6.90150e+00
       O  8.25739e+00  5.14381e+00  6.19675e+00
       H  8.49072e+00  5.24763e+00  4.33758e+00
       H  8.07830e+00  7.07697e+00  6.88381e+00
       O -4.51239e+00  1.25267e+01  6.18591e+00
       H -4.33119e+00  1.26473e+01  4.21662e+00
       H -4.38903e+00  1.43255e+01  6.70269e+00
       O  3.17654e-01 -9.78613e+00 -1.32727e+01
       H -1.17134e+00 -1.08478e+01 -1.30418e+01
       H  1.73225e+00 -1.10298e+01 -1.32079e+01
       O  4.59330e+00 -2.59059e+00 -1.31971e+01
       H  3.04953e+00 -3.81755e+00 -1.43686e+01
       H  6.11300e+00 -3.63738e+00 -1.35039e+01
       O  4.50208e+00 -1.26115e+01 -8.29448e-01
       H  4.65030e+00 -1.45619e+01 -3.35515e-01
       H  4.60622e+00 -1.21028e+01 -2.79656e+00
       O  3.65229e-01 -5.23221e+00 -6.84179e-01
       H  4.92445e-01 -7.02951e+00 -3.55024e-01
       H -9.65041e-02 -4.96581e+00 -2.41205e+00
       O  3.98293e+00 -1.20578e+01 -6.18567e+00
       H  2.45030e+00 -1.12134e+01 -6.78532e+00
       H  5.58780e+00 -1.10316e+01 -6.52436e+00
       O -3.29986e-01 -4.75343e+00 -6.30772e+00
       H -2.05812e+00 -4.02585e+00 -6.48779e+00
       H  1.19830e+00 -3.65509e+00 -7.03331e+00
       O -1.38250e-01 -9.41382e+00 -7.68627e+00
       H -1.30149e-01 -9.55199e+00 -9.55926e+00
       H -9.17097e-02 -7.53026e+00 -7.28909e+00
       O  4.01041e+00 -2.18597e+00 -7.63944e+00
       H  4.00843e+00 -2.11914e+00 -9.66512e+00
       H  4.22359e+00 -2.49976e-01 -7.28155e+00
       O  2.89465e-01 -9.85176e+00  5.22666e-01
       H -1.09401e+00 -1.08488e+01  3.12083e-02
       H  1.85628e+00 -1.09594e+01  7.07293e-01
       O  4.59300e+00 -2.63986e+00  5.67958e-01
       H  3.01805e+00 -3.74652e+00  3.28845e-01
       H  6.29146e+00 -3.95252e+00  4.60216e-01
       O  4.52853e+00 -1.25003e+01  1.30766e+01
       H  4.60133e+00 -1.41049e+01  1.34183e+01
       H  4.71229e+00 -1.21093e+01  1.12152e+01
       O  3.39544e-01 -5.29431e+00  1.31670e+01
       H  3.20405e-01 -6.86874e+00  1.37677e+01
       H  1.27361e-01 -5.46633e+00  1.14383e+01
       O  3.89960e+00 -1.21497e+01  7.52151e+00
       H  2.52088e+00 -1.09779e+01  7.31417e+00
       H  5.03991e+00 -1.11668e+01  7.18765e+00
       O -2.39612e-01 -4.76634e+00  7.60426e+00
       H -1.62748e+00 -3.62687e+00  7.33524e+00
       H  1.19497e+00 -3.71909e+00  7.45375e+00
       O -2.94955e-01 -9.62126e+00  6.16052e+00
       H -3.31301e-01 -9.61073e+00  4.04929e+00
       H -1.81517e-01 -7.85248e+00  6.58043e+00
       O  3.91029e+00 -2.22133e+00  6.13009e+00
       H  4.21516e+00 -2.50314e+00  4.23077e+00
       H  3.74133e+00 -4.54769e-01  6.74755e+00
       O  2.66995e-01  4.87030e+00 -1.29980e+01
       H -1.22228e+00  4.03171e+00 -1.37518e+01
       H  1.84652e+00  3.94495e+00 -1.35764e+01
       O  4.44817e+00  1.21982e+01 -1.31614e+01
       H  3.05908e+00  1.09318e+01 -1.36001e+01
       H  6.05447e+00  1.11486e+01 -1.33207e+01
       O  4.58556e+00  2.13147e+00 -7.25490e-01
       H  4.37757e+00  3.77609e-01 -1.68864e-01
       H  4.65108e+00  2.62768e+00 -2.75480e+00
       O  1.70468e-01  9.52723e+00 -7.37729e-01
       H  3.88175e-01  7.67242e+00 -2.52698e-01
       H  2.21410e-01  9.30705e+00 -2.66929e+00
       O  3.94707e+00  2.59854e+00 -6.15988e+00
       H  2.13831e+00  3.36114e+00 -6.67395e+00
       H  5.57553e+00  3.33547e+00 -6.34972e+00
       O -2.04119e-01  9.98630e+00 -6.21271e+00
       H -1.88128e+00  1.08343e+01 -6.45694e+00
       H  1.16059e+00  1.13061e+01 -6.63556e+00
       O -3.44073e-01  5.12595e+00 -7.68419e+00
       H -4.31223e-02  5.15690e+00 -9.49362e+00
       H -3.17101e-01  6.96146e+00 -7.05891e+00
       O  3.98499e+00  1.25991e+01 -7.69432e+00
       H  4.48317e+00  1.25345e+01 -9.50690e+00
       H  3.92138e+00  1.44634e+01 -7.21432e+00
       O  2.38738e-01  4.85223e+00  6.59967e-01
       H -1.13460e+00  3.71869e+00  8.97009e-02
       H  1.81755e+00  3.49129e+00  6.29777e-01
       O  4.58772e+00  1.20465e+01  7.27105e-01
       H  3.19634e+00  1.12112e+01  1.45367e-01
       H  6.26238e+00  1.11154e+01  2.98961e-01
       O  4.51428e+00  2.17277e+00  1.30574e+01
       H  4.74132e+00  3.03478e-01  1.32933e+01
       H  4.20983e+00  2.29922e+00  1.13360e+01
       O  1.91484e-01  9.53516e+00  1.30884e+01
       H  1.03322e+00  7.87093e+00  1.40888e+01
       H  3.03677e-01  9.44565e+00  1.11206e+01
       O  4.00709e+00  2.55709e+00  7.63831e+00
       H  2.41035e+00  3.47568e+00  7.21421e+00
       H  5.28769e+00  3.70007e+00  7.03166e+00
       O -3.24148e-01  9.90617e+00  7.57382e+00
       H -1.64812e+00  1.11842e+01  7.66439e+00
       H  1.08847e+00  1.06520e+01  6.97060e+00
       O -3.02236e-01  5.33077e+00  6.20276e+00
       H -1.32875e-01  5.37144e+00  4.22774e+00
       H -1.15012e-01  7.00627e+00  6.73646e+00
       O  3.88542e+00  1.25340e+01  6.01438e+00
       H  3.99722e+00  1.27589e+01  4.17908e+00
       H  3.73400e+00  1.41658e+01  6.71437e+00
192
# CELL(abcABC):   16.99620    29.43815    27.67315    90.00000    90.00000    90.00000  Step:          30  Bead:      24 positions{atomic_unit}  cell{atomic_unit}
       O -8.17805e+00 -1.00058e+01 -1.31350e+01
       H  7.24746e+00 -1.08780e+01 -1.31724e+01
       H -6.79652e+00 -1.07180e+01 -1.37505e+01
       O -3.87974e+00 -2.54977e+00 -1.31100e+01
       H -5.38998e+00 -3.65499e+00 -1.33022e+01
       H -2.49691e+00 -3.52630e+00 -1.35636e+01
       O -3.91377e+00 -1.25033e+01 -8.58189e-01
       H -4.10669e+00 -1.47081e+01 -3.75835e-01
       H -4.29241e+00 -1.24802e+01 -2.58252e+00
       O -8.22151e+00 -5.19889e+00 -6.95815e-01
       H -8.07074e+00 -6.93753e+00 -2.77647e-01
       H -8.45764e+00 -5.25457e+00 -2.74650e+00
       O -4.54689e+00 -1.21431e+01 -6.23924e+00
       H -5.78168e+00 -1.09878e+01 -6.69078e+00
       H -2.99286e+00 -1.10505e+01 -6.71802e+00
       O  8.30183e+00 -4.74466e+00 -6.35821e+00
       H  6.66758e+00 -3.84257e+00 -6.39151e+00
       H -7.60682e+00 -3.44591e+00 -6.93348e+00
       O  8.23254e+00 -9.44019e+00 -7.66011e+00
       H  8.54962e+00 -9.34661e+00 -9.55683e+00
       H  7.67327e+00 -7.51589e+00 -7.00721e+00
       O -4.51624e+00 -2.18537e+00 -7.62779e+00
       H -3.97259e+00 -2.13544e+00 -9.36363e+00
       H -4.73976e+00 -7.45196e-01 -6.86207e+00
       O -8.29703e+00 -9.83541e+00  6.27988e-01
       H  7.48925e+00 -1.11485e+01  2.83178e-01
       H -6.82718e+00 -1.09128e+01 -1.72208e-02
       O -3.92671e+00 -2.59957e+00  7.04149e-01
       H -5.17085e+00 -4.02564e+00  6.73520e-01
       H -2.65200e+00 -3.88990e+00  3.98278e-01
       O -3.95171e+00 -1.25489e+01  1.30259e+01
       H -4.46746e+00 -1.45999e+01  1.35039e+01
       H -3.82594e+00 -1.25639e+01  1.14335e+01
       O -8.23516e+00 -5.11983e+00  1.31064e+01
       H -8.08646e+00 -6.98419e+00  1.37421e+01