192
# CELL(abcABC):   16.99620    29.43815    27.67315    90.00000    90.00000    90.00000  Step:           0  Bead:      10 velocities{atomic_unit}  cell{atomic_unit}
       O  1.83783e-03  9.30287e-05 -1.76437e-04
       H  8.04680e-04  2.49855e-03  1.69063e-04
       H -3.82111e-03  2.93339e-03 -8.26777e-04
       O -1.69537e-03  3.90084e-04  3.89308e-04
       H  7.23898e-03 -4.96535e-03  2.23417e-03
       H  1.77032e-03  2.90287e-03 -2.59366e-03
       O -8.72571e-04 -2.25871e-03  9.13740e-04
       H  4.14390e-03  6.59619e-04  5.54858e-03
       H  2.43733e-04  4.69303e-03 -3.85135e-04
       O  1.30026e-03  1.04536e-03 -6.93606e-04
       H  9.17832e-03  5.64945e-03  1.51980e-03
       H -2.12194e-03  4.85815e-05 -3.22699e-03
       O  8.27223e-04 -1.56142e-04 -1.49402e-04
       H  5.58713e-03 -2.62905e-03  4.66472e-03
       H  5.42378e-05  1.82505e-04 -3.73168e-03
       O  1.95671e-03  3.47887e-04  2.17279e-03
       H -1.85762e-03  7.62104e-04  3.80099e-03
       H  1.19538e-03  9.46123e-04 -3.59938e-03
       O -4.43397e-04  1.24950e-03 -5.62099e-04
       H  2.78261e-03  8.87139e-04 -1.68198e-03
       H -2.02530e-03 -6.09048e-03  2.02972e-04
       O -8.57194e-04  4.23521e-04 -3.15678e-05
       H -8.90372e-04 -2.66131e-03  1.96888e-03
       H  7.54519e-03  1.36638e-03  2.94885e-03
       O -1.18362e-03  1.80298e-03 -9.06796e-04
       H -5.96065e-03 -2.53596e-03  4.19673e-03
       H -6.18161e-03  2.82164e-04 -2.31969e-03
       O -2.64291e-04  1.82159e-03  6.59927e-04
       H  3.80645e-03 -1.93433e-04  2.44279e-03
       H -2.35637e-03  5.90210e-03 -5.25801e-03
       O  1.48231e-03  3.04682e-04  1.05849e-03
       H -3.09123e-03 -2.40555e-03 -1.50458e-03
       H  2.40990e-03  3.91551e-03 -2.86408e-03
       O  3.58180e-04  5.69238e-04 -1.23271e-03
       H  1.50878e-03 -2.58123e-03 -3.05951e-03
       H  1.13293e-03 -3.77587e-04  2.34069e-03
       O  1.04961e-03 -1.57780e-04  1.20735e-03
       H  3.99469e-03  3.94900e-03 -4.39734e-03
       H  3.90990e-03 -2.03093e-04 -8.61870e-04
       O  1.50500e-03  2.18603e-04 -9.19203e-04
       H -2.47678e-03  3.13445e-03 -2.42136e-03
       H  1.93586e-03 -8.66831e-04  9.02812e-04
       O  3.47094e-04 -2.24441e-04  8.04920e-04
       H  4.47164e-03  2.27635e-03  3.09135e-03
       H -1.34015e-04 -2.57128e-03  5.51016e-03
       O -9.93957e-04 -4.24077e-04  1.13998e-03
       H  4.91235e-03  2.23894e-03  5.42110e-04
       H  1.45404e-03 -1.95660e-05 -2.95568e-03
       O -2.18199e-04  1.20943e-03 -4.11485e-04
       H  2.59796e-03  2.99210e-04  2.06116e-03
       H -2.85447e-03  1.60603e-03 -2.37796e-03
       O -1.25148e-03 -2.35066e-03  4.50436e-04
       H  2.18053e-03  4.14810e-03 -6.45572e-04
       H -1.87535e-03 -1.66052e-03  5.78736e-03
       O  3.70000e-04 -1.28258e-03  1.69909e-03
       H  9.78637e-04  1.70543e-03  9.00982e-03
       H  4.28833e-03 -6.78771e-04  5.11181e-03
       O  7.67123e-04  5.79721e-04 -3.07375e-04
       H  9.78990e-04 -4.61652e-04 -4.38038e-03
       H -1.24540e-03 -3.74754e-03  2.55037e-03
       O  2.46726e-04 -2.48138e-03  1.25989e-03
       H -1.69773e-03 -4.45505e-03  1.20183e-03
       H -1.05938e-03 -5.62070e-04  1.49608e-03
       O -1.63777e-03  1.97808e-03  2.10613e-04
       H -3.24626e-03 -1.18981e-03 -8.98701e-04
       H -4.57027e-03 -6.85872e-04 -4.39789e-04
       O  4.67178e-04  1.05943e-03 -3.62339e-04
       H -6.47554e-04  8.33527e-04 -1.90404e-03
       H  2.25365e-03 -3.91971e-03 -5.46923e-03
       O -1.82872e-03 -2.10973e-04 -1.62190e-03
       H  9.18549e-04  4.93348e-03  3.82805e-03
       H  2.06902e-03 -2.21600e-03 -2.18594e-03
       O -7.22665e-04  7.70773e-04  3.75196e-04
       H -1.99568e-03  1.22696e-03 -1.08776e-03
       H -2.58951e-04 -2.72960e-03  4.57244e-03
       O  1.55832e-04  2.57207e-05 -1.09139e-03
       H  2.95809e-03  4.64190e-03  2.11742e-03
       H -6.08878e-03 -4.50724e-03  1.07187e-03
       O -5.69856e-04  1.84456e-04 -1.07409e-03
       H -1.54272e-03 -8.67975e-03 -1.10368e-03
       H -6.77063e-03 -2.62965e-03  5.59264e-03
       O  1.02994e-03  9.49298e-05 -1.16581e-03
       H  3.39971e-03 -5.46606e-03 -2.24488e-03
       H -6.38230e-04 -2.48547e-03  5.29535e-03
       O -9.99024e-04  1.89138e-04  6.23507e-04
       H  5.51912e-03 -1.39190e-03 -4.44963e-04
       H -3.42957e-03 -9.17164e-03  1.11038e-05
       O  1.21853e-03 -6.81491e-04 -8.02421e-04
       H  2.61618e-03 -2.36760e-03 -4.44872e-03
       H  3.56013e-03 -3.03874e-03  1.95323e-03
       O -9.65900e-04  1.10275e-03  8.98923e-04
       H  2.66188e-03  5.16391e-03  1.30865e-03
       H  2.17856e-03 -2.01827e-03 -3.10772e-03
       O  1.23381e-03 -5.68083e-05  4.35784e-04
       H -7.84926e-03  6.81636e-04  6.55192e-03
       H  3.61828e-03  2.88232e-03  1.44630e-03
       O  1.94762e-04  1.63968e-03  5.24638e-04
       H  2.02013e-03 -1.67297e-03 -2.53235e-04
       H -9.27913e-04  1.27174e-03  1.06634e-03
       O  3.90707e-05  7.69766e-04  1.37792e-03
       H -5.04956e-03 -5.90953e-03 -2.52306e-04
       H -4.94523e-03  1.37690e-03 -4.46931e-03
       O -9.09363e-05 -1.65708e-03 -2.46906e-05
       H  2.99254e-03 -1.19486e-03  5.78748e-04
       H  2.56224e-03 -1.41061e-03 -2.82433e-03
       O  2.29083e-03 -3.00122e-04 -1.93844e-03
       H -4.09818e-03 -2.91004e-04 -3.47686e-03
       H  5.06548e-03 -6.89025e-03 -4.24653e-03
       O -1.47462e-03 -8.03476e-04 -2.49453e-04
       H -6.58766e-03 -6.84709e-04 -6.35327e-03
       H  2.95468e-03  8.11486e-03 -3.95393e-03
       O -1.03207e-03  1.03673e-03 -3.04618e-04
       H  5.68396e-04  7.18145e-03  3.64584e-04
       H -7.97144e-03 -3.49798e-03  8.63844e-03
       O  1.27609e-03 -6.12585e-04  8.17898e-04
       H  2.66105e-03  2.08492e-03 -2.13792e-04
       H  3.96899e-03  1.65137e-03 -1.23029e-03
       O -2.02420e-03  1.18198e-04 -9.36691e-04
       H -1.83110e-03 -8.77485e-04 -7.17982e-03
       H -6.46699e-03 -2.78961e-03 -9.05362e-04
       O -2.21471e-03 -4.64940e-04 -1.77348e-04
       H  7.01292e-03 -1.11093e-03 -2.41317e-03
       H  2.14340e-03 -7.32675e-03  2.71036e-04
       O -1.17002e-04 -1.78245e-03 -6.30040e-04
       H  7.01346e-04  3.41240e-03  1.48177e-03
       H  1.32876e-03  3.45104e-04  5.95374e-03
       O -3.06235e-04  2.61211e-03  1.15962e-04
       H -4.00589e-03  1.23196e-03  5.63137e-03
       H  2.79204e-03  2.78012e-03 -1.84712e-03
       O -5.58937e-04  1.00222e-03  4.57096e-04
       H -1.20238e-03  4.91182e-04 -1.42570e-03
       H  1.68009e-03 -2.01712e-03  3.03088e-04
       O  3.68889e-04  2.56083e-04  8.65558e-04
       H  2.03409e-03  1.24310e-03  2.81830e-03
       H -5.78799e-03 -8.71373e-04  1.13064e-03
       O -7.27028e-04 -6.58728e-04 -1.20749e-03
       H -3.31884e-04  8.08060e-04 -2.05638e-03
       H  1.56159e-04 -3.26741e-03  5.36121e-03
       O  2.84676e-04 -8.60380e-05  1.00877e-03
       H -5.36470e-03  7.73075e-03  5.35588e-03
       H  9.98837e-05 -4.59376e-03  3.43840e-03
       O  1.34520e-03 -7.52528e-04 -9.47874e-05
       H -1.98994e-03  6.00710e-03  4.74844e-04
       H  2.47680e-03 -7.09131e-04  4.52574e-03
       O -2.92310e-04  6.95169e-04 -5.30573e-04
       H  2.81701e-04  1.42986e-03 -1.27369e-03
       H -7.35391e-04 -2.38069e-03  2.40998e-03
       O -1.50132e-04 -8.43736e-04  1.26148e-03
       H  2.52929e-03 -7.05838e-04 -2.07727e-03
       H  1.96127e-03 -2.11949e-03 -1.13528e-03
       O  5.57987e-04 -1.67159e-04 -5.87491e-04
       H  3.29357e-03 -2.26927e-03  7.17754e-03
       H  2.68378e-03  5.27199e-03  1.21010e-03
       O  4.59883e-04 -6.91638e-04 -3.04665e-05
       H -4.52797e-03 -1.45543e-03  7.82947e-03
       H  3.92213e-03  2.78797e-03 -5.79926e-03
       O  1.21053e-03  2.83138e-04  2.02023e-03
       H -6.26233e-03  3.05830e-03  5.23638e-03
       H  1.26500e-03 -1.60832e-03 -5.57027e-04
       O  8.75328e-04 -1.23826e-03  1.36148e-03
       H -3.10409e-03  1.40954e-03 -3.83289e-03
       H -3.40423e-04 -2.88784e-03  2.50620e-05
       O -1.26587e-03  5.14215e-04 -2.85524e-05
       H -6.49898e-03 -6.71982e-04 -6.01371e-04
       H  1.52150e-03  4.26693e-04  9.60364e-04
       O -6.26606e-04  5.17629e-04  5.98664e-04
       H  4.82413e-03  1.94009e-03 -3.36951e-03
       H  2.25804e-03 -2.07485e-03  8.60730e-04
       O -7.35371e-06  3.23326e-04 -3.91687e-04
       H -1.94172e-03  3.93228e-03 -3.55719e-03
       H -4.42417e-04 -4.78478e-03  1.45047e-03
       O  4.24779e-04 -1.65633e-04 -1.99849e-03
       H -2.40316e-03  2.60760e-03 -1.62315e-03
       H  4.80529e-03  1.60744e-03 -3.10237e-05
       O -9.55343e-04  9.97549e-04  3.79286e-04
       H  2.00835e-03 -4.10315e-03  3.86034e-03
       H  6.92704e-03 -3.95514e-03 -5.55525e-03
       O -4.41492e-06 -8.84246e-04 -7.28508e-04
       H  2.89145e-03  5.76210e-04  2.20213e-03
       H  2.22675e-03  3.69530e-03  6.10245e-04
       O  2.76709e-04 -7.28275e-04 -1.33938e-03
       H -7.16572e-03 -9.98905e-03 -1.55264e-03
       H -2.30163e-03  7.91799e-03  1.36976e-03
       O -1.58052e-03 -7.25602e-04  1.06808e-03
       H -1.23749e-03 -4.42337e-03  2.35017e-03
       H -1.04245e-04 -2.32263e-03 -3.29385e-03
       O -1.10948e-03 -3.73097e-04  1.86467e-04
       H -1.16373e-03 -4.10861e-03  4.13202e-03
       H -1.04022e-03 -1.37383e-03 -2.14052e-03
       O -9.00666e-04  4.52694e-04 -3.31432e-04
       H  6.09293e-04  2.13809e-03 -1.89141e-03
       H  1.18375e-03  2.69022e-03 -1.47424e-03
192
# CELL(abcABC):   16.99620    29.43815    27.67315    90.00000    90.00000    90.00000  Step:          10  Bead:      10 velocities{atomic_unit}  cell{atomic_unit}
       O -4.46582e-04 -3.39476e-04  1.02305e-04
       H -6.00467e-03  4.82777e-03  3.24749e-03
       H -4.14599e-03  2.63817e-03 -8.00249e-03
       O  1.25120e-03 -1.04957e-04  1.14780e-03
       H -2.70144e-03 -4.60900e-05 -1.57821e-04
       H  7.54723e-03 -4.33929e-03 -1.50313e-03
       O  2.60186e-05 -3.67087e-04 -1.26131e-03
       H  5.00059e-03 -4.37978e-03  2.05155e-04
       H -2.78798e-03  5.94437e-03 -1.89339e-03
       O -1.30957e-04  7.11980e-04 -6.73973e-06
       H -1.62343e-03 -5.36708e-03 -3.45916e-03
       H -8.35905e-04  2.82692e-03  2.16199e-03
       O -8.15117e-05  2.28025e-04 -1.66745e-04
       H -5.35348e-03 -6.91985e-04  2.22855e-03
       H -2.52449e-03  1.55623e-03  3.06601e-03
       O  2.29320e-03 -5.32537e-04 -1.82604e-03
       H  1.69187e-03 -1.74963e-03 -1.83628e-03
       H  1.28161e-03  3.80942e-03 -5.32737e-04
       O -7.80663e-04  7.56320e-04 -2.11928e-04
       H -3.92762e-03 -4.39782e-04  6.24119e-04
       H -1.05257e-03 -8.07218e-03  3.48850e-03
       O -7.46709e-04 -1.32215e-03  1.55197e-03
       H -2.94182e-04 -1.47094e-03 -4.31551e-03
       H -1.20846e-03 -4.57310e-04 -4.78840e-03
       O -1.68265e-03  4.66889e-05  1.11459e-03
       H -3.40846e-04 -2.06494e-03 -1.71268e-03
       H  3.41578e-04  3.72551e-04  1.28134e-03
       O -5.94702e-04  5.97332e-04  5.09011e-04
       H  2.59223e-03 -2.30573e-03  4.98426e-03
       H -3.00699e-03 -1.68889e-03  3.71393e-03
       O -6.80282e-04  1.05401e-04 -1.34837e-03
       H -2.80284e-03  4.08956e-03 -3.95874e-03
       H  4.12873e-04 -2.53226e-03  1.49509e-03
       O  3.96697e-04  2.15898e-04  4.15836e-05
       H  8.15606e-04  2.28823e-04  1.90022e-03
       H -2.45742e-03  1.69920e-03 -1.59664e-04
       O -1.32585e-03 -1.99370e-03  4.17051e-04
       H -8.65392e-04 -2.23400e-03  2.38651e-03
       H  2.40815e-03  1.10809e-03 -1.14969e-03
       O -3.35438e-05  4.07591e-04  7.03660e-04
       H -3.48913e-03  4.62925e-03 -2.58778e-03
       H -2.79111e-03 -6.75585e-03  2.96289e-03
       O -9.21186e-04  1.17545e-03 -4.03492e-04
       H  3.15602e-03 -6.50332e-03  6.18081e-03
       H  6.14423e-04 -1.75890e-03 -4.29471e-03
       O -6.91345e-04 -3.25131e-04 -4.39009e-04
       H -4.50192e-03  4.56591e-03 -3.62465e-03
       H  1.22787e-03 -3.40296e-03  4.40525e-03
       O  7.86764e-04 -1.76823e-04 -1.60776e-03
       H -1.32165e-03  1.96051e-04 -2.69099e-03
       H  2.04107e-04  2.38121e-03 -1.84403e-03
       O -7.99005e-04  1.39975e-03  2.76969e-04
       H  3.88092e-03  4.11617e-03 -4.56834e-03
       H -8.16892e-04 -1.87895e-03  4.79535e-03
       O -5.78109e-04  7.07672e-04  5.49176e-04
       H  8.33574e-04  2.61786e-03  2.31995e-03
       H  1.07360e-03 -1.11961e-03 -1.01723e-03
       O -8.42946e-06  7.83916e-05  3.78291e-04
       H  1.39918e-03 -6.22445e-03 -7.78276e-04
       H  1.32148e-03  4.63140e-04  1.91472e-03
       O  8.14008e-04  8.11365e-04  7.47703e-04
       H -2.91438e-04 -5.34698e-03 -5.28381e-03
       H  6.39864e-03 -4.00200e-03 -9.41341e-04
       O -1.64716e-03  7.98632e-04 -3.02731e-04
       H  2.87353e-03  6.13842e-03  6.32346e-04
       H -3.45121e-03  2.60132e-05 -1.00603e-03
       O -7.76484e-04 -2.36232e-04 -1.09017e-03
       H  3.05682e-03 -1.34865e-03  2.40150e-03
       H  3.85232e-03 -1.11813e-03 -3.23599e-03
       O -4.53700e-04 -4.06534e-04 -5.72464e-04
       H -3.63287e-03  5.68273e-04  3.51908e-03
       H -3.47562e-03 -2.12962e-03 -3.11648e-03
       O  5.78228e-04  1.41529e-03  6.31204e-04
       H  1.51540e-03 -3.59297e-03 -4.39673e-03
       H  3.97100e-03  2.43030e-03 -9.37226e-04
       O  1.19016e-03 -7.76127e-04 -2.26958e-04
       H  2.21196e-03  9.89871e-04 -4.65162e-03
       H -2.53385e-03  1.85393e-03  3.08458e-03
       O -1.52945e-03 -5.40588e-04  1.45790e-04
       H -4.99157e-03  1.32365e-03 -9.55945e-03
       H  1.22242e-03  4.12146e-03 -4.94114e-04
       O -9.82904e-05  2.49982e-04 -4.14047e-04
       H -5.00815e-03 -3.61661e-03  5.20520e-03
       H -1.24200e-03  3.63181e-03  2.99902e-03
       O  3.38661e-04 -5.30386e-04  5.15830e-04
       H -8.02881e-04  5.34382e-03  1.76967e-03
       H  3.26440e-03 -1.42803e-03 -9.47907e-04
       O  1.50099e-03 -1.17780e-03  1.89543e-03
       H  1.99880e-03 -1.06059e-03  1.70471e-03
       H -5.62528e-03 -2.91823e-03  5.03974e-03
       O  1.46826e-03 -1.50455e-03  3.05640e-04
       H -3.05008e-03 -3.56888e-03 -6.81091e-03
       H  3.30953e-03  3.03944e-04  4.03608e-03
       O  4.86626e-04 -7.22747e-04  1.51361e-03
       H  1.03466e-03  4.91296e-03  3.57793e-03
       H -9.69612e-04  1.79670e-03  5.00860e-03
       O  4.85617e-04 -2.66247e-05 -1.19926e-03
       H -7.33250e-03  4.08368e-04  5.43497e-03
       H -2.97974e-03 -4.47795e-03 -1.36315e-03
       O -5.53936e-04  2.27272e-03  5.10658e-04
       H  9.11137e-04 -2.07900e-03 -9.80494e-04
       H -3.48916e-03  2.90043e-04  1.08595e-02
       O  6.72526e-04 -8.56495e-04  3.89752e-04
       H -5.84960e-04  4.53738e-03  5.87210e-03
       H  2.45884e-03  4.27767e-03 -1.47450e-03
       O -5.33295e-05 -1.01613e-03  1.40279e-03
       H -1.17658e-03 -5.29317e-05  1.15265e-03
       H  5.71422e-04  6.77088e-03  3.45485e-03
       O  1.22011e-03  1.65420e-03 -1.65312e-04
       H -2.26915e-03 -3.08448e-03  3.60854e-05
       H  4.17406e-04 -5.82302e-04 -4.25941e-03
       O  1.06579e-03 -1.26036e-04 -1.67333e-04
       H -1.73091e-03 -1.88872e-03 -1.45780e-03
       H -2.33392e-03  4.44146e-03  1.50051e-03
       O  8.56292e-05 -4.41812e-04  6.32683e-04
       H -9.83582e-04  1.91799e-03 -6.99155e-04
       H -2.53210e-03  7.58823e-04 -4.25981e-04
       O  1.02264e-04  3.25272e-04  1.00922e-04
       H -2.22424e-03 -9.97534e-04 -1.38232e-03
       H  2.00342e-05  1.26186e-03 -1.45114e-03
       O -1.27662e-03 -1.47925e-03  1.74449e-03
       H  6.02801e-03  1.33317e-03 -2.03088e-03
       H -1.30397e-03 -3.08663e-03 -3.64013e-03
       O  8.45396e-04  7.31565e-04  2.18450e-04
       H -3.01484e-03  2.45651e-03  3.94351e-03
       H -1.95461e-03 -3.68772e-03  4.92720e-03
       O  9.59982e-04  1.10886e-03 -5.59779e-04
       H -3.61226e-03 -3.30255e-03 -1.85329e-03
       H  5.02607e-03  2.02632e-03  6.43672e-03
       O  1.09644e-03  9.73477e-04 -2.48578e-04
       H -2.74982e-03  4.73607e-04 -6.60143e-04
       H -4.22370e-03 -1.41240e-03 -2.75553e-03
       O  6.60278e-04  1.08713e-04  9.30707e-04
       H -1.00227e-03  3.04524e-03  2.39834e-03
       H -9.07596e-04 -1.73703e-03 -3.59862e-03
       O -9.28079e-04 -9.51525e-05  3.70912e-04
       H  5.29036e-04 -1.98839e-03  3.56621e-03
       H  2.95979e-03 -4.27357e-03  5.11394e-03
       O  2.72906e-04  1.61090e-03 -3.35959e-04
       H -1.72235e-03  1.10319e-03 -4.08225e-05
       H  4.36472e-03  3.50833e-03  4.81754e-03
       O -2.12043e-04 -6.43193e-04 -9.80503e-04
       H  3.26047e-03  1.98155e-03 -2.13499e-05
       H  1.53322e-03  4.84882e-03 -5.99882e-03
       O  4.36826e-05  7.10549e-04 -1.40332e-03
       H  6.49793e-03  1.62988e-03 -7.75088e-03
       H -2.87446e-03  6.29855e-03 -2.29945e-03
       O -1.59404e-03 -5.46878e-04 -1.35264e-04
       H  8.70477e-04 -4.15954e-06 -6.20235e-03
       H  3.25428e-03  8.44708e-04  2.21959e-03
       O  4.12116e-04  7.56190e-04 -1.18839e-03
       H -1.63192e-03 -2.63013e-05  6.98967e-03
       H  6.14658e-04  5.53134e-03  7.83108e-04
       O -1.22570e-04  8.80967e-04  1.19545e-03
       H  5.77235e-03  4.26103e-03  1.85134e-03
       H -4.09230e-03 -2.57792e-03 -2.35367e-03
       O -2.09415e-04 -2.14981e-03  8.26384e-04
       H  4.15465e-03 -4.31292e-03 -3.94027e-04
       H  2.68241e-03 -2.30238e-03 -6.21792e-04
       O  1.49659e-03 -1.85829e-04  4.83918e-04
       H  1.84173e-03 -1.37140e-03  2.30763e-03
       H -2.18606e-03 -2.05827e-03 -2.70186e-03
       O  1.21099e-04  5.27835e-04 -7.08250e-04
       H -8.81745e-03  7.78321e-04 -2.15189e-03
       H  8.25295e-03  2.84134e-03 -1.92812e-03
       O  6.68079e-04 -1.66636e-03  9.15175e-04
       H  2.19113e-03  6.25300e-03 -2.28899e-03
       H  1.67005e-03 -3.99562e-04  1.16528e-04
       O -7.12474e-04 -1.33186e-03  9.11006e-05
       H  7.53659e-03 -8.41193e-04 -8.19056e-03
       H  5.20132e-03 -1.85757e-03 -2.64691e-03
       O -4.34212e-04  7.54447e-04 -1.36331e-03
       H -8.04477e-03  4.37511e-03 -6.80530e-04
       H -2.12297e-03  2.35871e-04  1.12418e-03
       O  5.85551e-04  1.05558e-03 -1.97409e-03
       H -5.47619e-03  8.21171e-03  8.97544e-04
       H -3.97734e-03  6.34595e-03  7.49538e-04
       O  6.40922e-04 -7.89175e-04 -8.66561e-04
       H -4.07185e-03 -3.95656e-03 -5.98633e-03
       H  3.15291e-03  4.01935e-03 -3.16335e-03
       O  4.48628e-04 -9.18259e-04  2.79046e-04
       H  9.49037e-03 -1.05818e-03 -4.26716e-03
       H -7.12315e-04 -6.29760e-03 -2.20160e-03
       O  1.41344e-04 -1.39331e-03  5.89043e-04
       H  1.99816e-06 -1.69353e-03  4.82945e-04
       H  4.18422e-03  3.67760e-03 -1.11225e-03
       O -6.15549e-04  3.79494e-04  1.42194e-03
       H -4.35887e-03 -4.41994e-04 -1.66674e-03
       H  2.42130e-03  1.17959e-03  9.98721e-04
       O  1.10624e-03 -1.32085e-03 -4.81356e-04
       H  3.69941e-04 -4.61511e-05  5.41078e-03
       H  4.55030e-03 -4.64913e-03  1.37514e-03
192
# CELL(abcABC):   16.99620    29.43815    27.67315    90.00000    90.00000    90.00000  Step:          20  Bead:      10 velocities{atomic_unit}  cell{atomic_unit}
       O  1.86385e-04 -1.28873e-03  3.89076e-04
       H -9.87308e-05 -2.79253e-03 -9.21634e-05
       H  5.08060e-03  5.49101e-03 -2.19729e-03
       O  5.98681e-05  3.63359e-04  6.16482e-04
       H  9.42565e-05 -2.41303e-03  1.54084e-03
       H  1.47430e-03 -2.63894e-03 -3.58601e-03
       O -9.64595e-04  1.36700e-04 -2.45967e-04
       H -2.92574e-03  7.40651e-04 -8.01002e-03
       H -1.52921e-03 -3.26839e-03  1.02305e-02
       O -9.55059e-04 -8.81769e-04  2.29570e-04
       H -2.46403e-03  1.12147e-05 -1.93516e-03
       H -3.05540e-03  1.91206e-03 -2.55081e-04
       O  3.92768e-04 -2.56147e-04 -1.43020e-03
       H -3.79600e-03  3.50204e-03 -2.21658e-03
       H  1.23115e-03 -2.03608e-03 -4.79299e-03
       O -1.47125e-03 -2.16984e-04 -6.45315e-04
       H  4.94594e-03  1.37321e-03 -2.01706e-03
       H -3.53327e-03  1.09089e-04  2.39422e-03
       O  2.36780e-04  4.71734e-04  4.17430e-04
       H  2.75073e-03 -6.83886e-03  1.91883e-03
       H -1.17541e-04 -3.36488e-04  5.43257e-03
       O  4.44477e-04  1.17798e-03 -1.04386e-04
       H  3.37992e-03 -4.14223e-03 -1.90608e-04
       H -2.33129e-03 -2.99124e-03 -3.41174e-03
       O -1.20415e-03 -1.45867e-05 -1.32421e-03
       H  5.79425e-04  1.10424e-04 -2.04659e-03
       H -1.20348e-03  1.42039e-03  2.29965e-03
       O  5.28631e-05  3.61660e-04 -1.41585e-03
       H  2.56864e-03 -5.15292e-04  3.13190e-03
       H -1.13798e-04 -9.17985e-04 -1.47433e-03
       O  1.76685e-03  4.42291e-04 -1.33680e-03
       H -2.35669e-03 -4.10087e-03 -5.39599e-04
       H  4.40809e-03  4.05061e-04  2.12872e-03
       O  1.84538e-04  1.53620e-03  7.66657e-04
       H -2.90507e-04 -7.16625e-04 -5.46961e-03
       H  1.76026e-03 -6.36052e-04 -6.30172e-03
       O  9.67647e-04  1.00417e-03  1.19222e-03
       H  1.89964e-03  6.92863e-04 -2.28479e-03
       H  3.29631e-03  6.51502e-04 -2.99563e-03
       O -9.06186e-04 -2.83706e-04 -7.87213e-04
       H  3.22271e-03  1.45929e-04 -2.64381e-03
       H  5.40746e-03 -2.57520e-03 -5.38851e-03
       O  8.19374e-04 -4.47889e-04  9.39580e-04
       H -1.43476e-03 -3.33625e-04 -1.74820e-03
       H -3.90795e-03 -2.38940e-03  4.62798e-03
       O  4.19601e-04  3.76479e-04  2.33468e-04
       H  5.92167e-03  1.07491e-03 -2.47272e-03
       H  9.37729e-04  2.77545e-03  7.07130e-03
       O  3.65505e-04  4.09818e-04 -3.41070e-04
       H  5.35118e-03  1.58907e-03  3.13346e-03
       H -3.06845e-03 -1.68959e-03 -3.19278e-03
       O -1.13673e-03  7.00010e-04  1.18996e-03
       H -5.34403e-03 -1.79207e-03 -1.69909e-03
       H  8.71831e-04  6.56916e-05 -4.69763e-03
       O -2.90087e-04 -3.84557e-04 -6.81254e-04
       H -2.01936e-03  1.68069e-03  4.77480e-04
       H -4.18932e-03  9.85970e-03 -4.76354e-04
       O  5.20595e-04 -1.08796e-03  2.30435e-04
       H  1.77704e-03 -4.62361e-03 -7.19493e-04
       H  2.19714e-03  4.48732e-03 -4.69060e-03
       O  1.22827e-03 -9.29776e-04  6.59920e-04
       H -5.76646e-03  1.34246e-03  4.68049e-03
       H -7.81988e-04 -2.05965e-03 -1.92761e-03
       O  8.35470e-04  1.13600e-04 -7.93973e-04
       H -8.60782e-03 -1.63353e-04 -2.27761e-03
       H  2.77955e-03  2.91283e-03 -2.04089e-03
       O  2.31692e-04  4.11129e-04 -8.58297e-04
       H -3.00141e-03  4.38879e-03 -1.17260e-03
       H  1.08233e-03 -8.24485e-05  1.83453e-03
       O -8.86228e-05 -1.38205e-03  4.57831e-04
       H -4.74749e-03 -1.68140e-03 -1.46114e-03
       H -5.79226e-03  4.72697e-03 -2.49783e-03
       O  2.41712e-04 -6.10992e-04 -1.72401e-03
       H -1.41215e-03 -3.36571e-03  4.98781e-03
       H  3.54768e-03  6.72902e-04  8.09719e-04
       O  3.09835e-04 -6.33199e-04 -3.25442e-04
       H -2.09501e-03 -2.40422e-03  9.45834e-03
       H  1.46262e-03  1.24896e-03 -5.74084e-03
       O  2.94544e-04  8.10247e-05 -2.50015e-03
       H  4.01691e-03 -6.81907e-03 -3.26467e-04
       H -3.12826e-03  1.20205e-04 -3.44870e-03
       O  3.54219e-05  1.45717e-03  1.87096e-04
       H -7.56798e-04 -4.33378e-03  1.77801e-03
       H -4.14081e-03 -6.28663e-03 -1.69726e-03
       O  5.15362e-04  1.19047e-03  1.49060e-03
       H  9.71209e-04  3.20460e-03 -5.84238e-03
       H  1.60534e-03  1.20391e-03 -3.66699e-03
       O -2.85687e-04 -1.29450e-03  7.44066e-04
       H  5.15249e-03  6.78785e-03  3.18123e-04
       H  5.11659e-03  8.08938e-03 -2.72215e-03
       O  6.04142e-04 -1.69615e-03 -4.47773e-04
       H -5.82566e-03  1.99439e-03  5.03045e-03
       H  3.36775e-03 -9.13206e-03  7.60825e-03
       O -7.08414e-04  1.60700e-04  3.01698e-04
       H -3.18347e-03 -5.92724e-03 -7.75486e-04
       H -2.99637e-03 -4.93255e-03 -5.91893e-03
       O  9.95337e-04  8.70037e-04  5.24628e-05
       H -9.58430e-05  2.90314e-03  2.58293e-05
       H  1.79211e-03 -7.12429e-03  2.01247e-03
       O -8.49735e-05  3.51120e-04  1.20344e-03
       H -1.80154e-03  2.39790e-03 -3.63863e-03
       H -5.30526e-04 -2.82917e-03  4.18659e-03
       O -1.94702e-04  5.46302e-04  1.19310e-03
       H  2.78630e-03 -3.82507e-03  1.07189e-03
       H -6.61751e-03  4.23342e-03 -3.09138e-03
       O -2.98008e-04  4.62831e-04 -2.67314e-04
       H -4.38881e-03  8.54475e-03  6.66590e-03
       H -2.30446e-03 -5.49238e-04  6.69452e-03
       O  7.01250e-04  3.67819e-04  1.78005e-03
       H -1.83953e-04  4.34818e-03  5.04362e-04
       H -5.56002e-03  6.57137e-03  6.06165e-03
       O  1.29969e-03 -9.91298e-05  7.57265e-05
       H -6.12792e-03  1.24333e-03  3.05678e-03
       H -3.68361e-04 -2.82010e-03 -3.15152e-03
       O -2.73985e-04 -1.04272e-03  4.82268e-04
       H  7.34022e-04 -8.30757e-03  2.65358e-03
       H -6.04282e-04 -2.67737e-03  5.71643e-03
       O -2.43975e-04 -1.62291e-03  6.65899e-05
       H  6.41129e-03 -2.64274e-03  4.51711e-03
       H  2.42979e-03 -9.63464e-04  1.46829e-03
       O  1.07984e-05 -7.13785e-04  1.30350e-04
       H  5.63672e-04  5.97279e-03  4.25187e-03
       H  7.01415e-03  6.17296e-03 -3.33833e-03
       O  5.91649e-04 -3.34755e-04  1.58763e-04
       H  3.77972e-03 -1.49479e-03  6.18501e-03
       H -4.43469e-03 -5.85152e-03 -1.24229e-03
       O -2.68967e-04 -2.96941e-04  1.98443e-03
       H  2.76099e-04 -5.59361e-03 -3.88187e-03
       H -2.69846e-03 -4.07916e-03 -4.98375e-03
       O -3.51929e-04 -8.41385e-05 -3.00805e-04
       H  1.71229e-03  3.79538e-03 -7.97900e-04
       H -1.99734e-03 -8.58451e-03  6.46919e-03
       O  3.62576e-05 -2.62224e-03  1.85536e-04
       H  6.24442e-03  4.97614e-03  3.09347e-04
       H -7.66714e-04  1.00012e-03  3.05588e-03
       O  1.78486e-03  7.10138e-04  1.61509e-04
       H  1.12660e-04  6.88992e-03 -5.69449e-03
       H -3.54365e-03  1.36232e-03  3.84361e-03
       O -3.07143e-04 -2.47803e-04  2.01408e-04
       H  3.00489e-03  1.39635e-03 -6.76145e-04
       H -3.85590e-03 -2.49373e-03 -4.54058e-03
       O  5.49051e-04 -5.48962e-04  4.69814e-04
       H  1.25782e-03 -3.62187e-04 -1.47824e-03
       H  4.24315e-03  6.93223e-03 -6.03406e-04
       O  1.91279e-04  1.90440e-05 -1.33785e-03
       H -8.68471e-03 -3.25315e-05 -3.73860e-03
       H -1.68555e-03 -7.87983e-04 -2.14738e-03
       O -2.15051e-03 -1.68131e-04  6.48973e-04
       H  2.74297e-03 -1.59926e-03  1.46923e-03
       H -2.70906e-03  9.43523e-04  2.96499e-03
       O -1.05298e-03  5.52904e-04  9.25830e-04
       H -3.19197e-03  3.04471e-03 -1.13806e-03
       H  6.67147e-03 -2.27857e-03  4.34826e-03
       O  1.53423e-03  1.10777e-04  1.76858e-03
       H  9.43865e-04 -3.02411e-03 -3.73799e-03
       H  4.18062e-03 -5.87268e-03 -1.97082e-03
       O  2.16913e-06 -1.89741e-04  4.55918e-06
       H  1.98924e-03  1.69277e-03  4.34300e-03
       H -2.99481e-03 -5.30453e-03  9.81212e-04
       O  1.39585e-03  1.44994e-03 -7.55223e-04
       H -3.51914e-03 -8.49141e-04 -1.41641e-03
       H -1.20352e-03  1.87132e-03  3.99899e-03
       O  6.66185e-04  3.88432e-04  3.43441e-04
       H  1.68290e-03 -7.49690e-04 -7.55715e-03
       H  2.77949e-03 -1.96484e-03  1.63795e-03
       O -1.66466e-03  1.09902e-04 -7.92406e-05
       H  3.12003e-03  1.80309e-03  1.30424e-03
       H -1.47674e-03  3.49464e-03  6.74480e-03
       O  4.07461e-05 -1.05451e-03  3.78939e-04
       H -7.05771e-03 -8.39922e-04 -2.20295e-04
       H -8.95490e-03 -4.47759e-03  1.79791e-03
       O -1.58393e-03  1.27240e-03  1.35627e-03
       H  4.75546e-04 -2.77304e-03 -3.88264e-03
       H  3.71923e-03  6.97157e-03  6.23864e-03
       O -2.20721e-04 -3.81478e-04  1.69487e-04
       H  1.79547e-03 -4.79672e-03 -1.12086e-03
       H  8.09582e-03  3.75368e-03 -2.51544e-03
       O  1.58966e-04 -1.04764e-03  4.78729e-04
       H -2.60153e-04  3.72133e-03  5.51173e-03
       H -3.67792e-03 -5.74574e-03  4.12702e-04
       O  1.10992e-03  1.61424e-03 -2.99818e-04
       H -2.28299e-03 -7.78137e-04 -6.07906e-03
       H -1.98921e-03  5.36417e-04 -1.87851e-03
       O  5.43151e-04 -9.06961e-04 -9.35870e-04
       H -3.19607e-04  1.30920e-03  7.01585e-04
       H -1.96066e-03  2.34457e-03  2.21571e-03
       O  1.20733e-03 -1.35444e-03  5.74260e-04
       H  4.31698e-03  7.67690e-03 -3.36681e-03
       H -1.74801e-03 -4.25189e-03  1.86244e-03
       O  2.55373e-03  5.35415e-04  1.12216e-03
       H -7.65335e-03 -5.67141e-03 -3.20271e-03
       H -1.58473e-03 -2.93674e-03 -3.63792e-03
192
# CELL(abcABC):   16.99620    29.43815    27.67315    90.00000    90.00000    90.00000  Step:          30  Bead:      10 velocities{atomic_unit}  cell{atomic_unit}
       O -5.02010e-04  2.22136e-03 -6.48019e-04
       H -1.99997e-03  3.36081e-03 -1.94535e-03
       H  5.52213e-03 -3.35592e-03  2.80613e-03
       O -1.38689e-03  8.37877e-04 -1.17346e-04
       H -6.83500e-03  2.37643e-03 -6.34937e-05
       H  2.03437e-03  1.13897e-03  2.32348e-03
       O  3.26960e-05  1.43630e-03  1.48274e-03
       H -9.75648e-04  2.48251e-03  3.82075e-03
       H -6.15737e-03 -7.64175e-03 -2.28835e-03
       O  9.93373e-05  1.41054e-04 -1.27286e-03
       H -7.51035e-04 -2.78399e-03 -7.28726e-03
       H  4.92807e-03  3.26933e-04  2.52888e-03
       O -4.23164e-04  2.44660e-04 -3.06619e-04
       H  1.34078e-03 -9.64024e-03  5.66094e-04
       H -8.26084e-04 -2.16973e-03 -4.12200e-03
       O  4.83953e-04  1.08524e-03 -7.34497e-04
       H  1.09336e-04 -2.54430e-03  1.08140e-03
       H  5.56446e-04  1.97228e-03 -3.04519e-04
       O -3.49485e-05  6.63677e-04  2.32278e-04
       H  1.46517e-03  9.99480e-04  2.04468e-03
       H -7.13362e-04  5.15844e-03  3.08646e-04
       O  4.13709e-04 -5.07223e-04  2.02864e-04
       H -4.56969e-03  9.23205e-04  5.34019e-03
       H -3.79498e-03  4.62320e-03 -3.06712e-03
       O -3.08907e-04  9.95763e-04 -4.92001e-04
       H -2.21040e-03 -1.39956e-04 -4.66311e-03
       H  2.41688e-03 -5.92378e-03 -9.96883e-04
       O  3.13301e-04  1.84065e-03 -1.37561e-03
       H -8.53835e-03 -2.86183e-03 -1.97529e-03
       H -1.84552e-04 -6.54576e-03  2.59380e-03
       O -2.97577e-04 -3.23821e-04  7.10466e-04
       H -1.19092e-03 -1.06130e-03 -6.12445e-03
       H -8.51046e-04 -3.98601e-03  1.02158e-03
       O  4.21257e-04  4.67119e-05  8.01561e-04
       H -1.54968e-03 -4.26195e-03 -3.46512e-04