192
# CELL(abcABC):   16.99620    29.43815    27.67315    90.00000    90.00000    90.00000  Step:           0  Bead:      23 positions{atomic_unit}  cell{atomic_unit}
       O -8.21943e+00 -9.93714e+00 -1.31733e+01
       H  7.30975e+00 -1.09659e+01 -1.36333e+01
       H -6.70309e+00 -1.09427e+01 -1.35003e+01
       O -3.97045e+00 -2.57760e+00 -1.31733e+01
       H -5.43740e+00 -3.60640e+00 -1.36335e+01
       H -2.45410e+00 -3.58307e+00 -1.35002e+01
       O -3.95479e+00 -1.25494e+01 -7.82537e-01
       H -3.95303e+00 -1.43463e+01 -2.27998e-01
       H -4.14654e+00 -1.25640e+01 -2.59980e+00
       O -8.20381e+00 -5.18980e+00 -7.82573e-01
       H -8.20206e+00 -6.98662e+00 -2.28079e-01
       H -8.39554e+00 -5.20430e+00 -2.59985e+00
       O -4.52774e+00 -1.21415e+01 -6.25501e+00
       H -6.04401e+00 -1.11359e+01 -6.58198e+00
       H -3.06070e+00 -1.11128e+01 -6.71509e+00
       O  8.21948e+00 -4.78197e+00 -6.25503e+00
       H  6.70316e+00 -3.77646e+00 -6.58191e+00
       H -7.30970e+00 -3.75321e+00 -6.71514e+00
       O  8.20373e+00 -9.52922e+00 -7.70081e+00
       H  8.39566e+00 -9.51468e+00 -9.51806e+00
       H  8.20220e+00 -7.73240e+00 -7.14624e+00
       O -4.54345e+00 -2.16975e+00 -7.70084e+00
       H -4.35162e+00 -2.15526e+00 -9.51812e+00
       H -4.54503e+00 -3.72917e-01 -7.14634e+00
       O -8.21943e+00 -9.93697e+00  6.63195e-01
       H  7.30977e+00 -1.09657e+01  2.03202e-01
       H -6.70308e+00 -1.09425e+01  3.36227e-01
       O -3.97044e+00 -2.57760e+00  6.63173e-01
       H -5.43747e+00 -3.60635e+00  2.03069e-01
       H -2.45410e+00 -3.58312e+00  3.36346e-01
       O -3.95472e+00 -1.25494e+01  1.30540e+01
       H -3.95309e+00 -1.43462e+01  1.36086e+01
       H -4.14653e+00 -1.25640e+01  1.12368e+01
       O -8.20380e+00 -5.18990e+00  1.30541e+01
       H -8.20202e+00 -6.98672e+00  1.36085e+01
       H -8.39553e+00 -5.20434e+00  1.12368e+01
       O -4.52771e+00 -1.21415e+01  7.58159e+00
       H -6.04402e+00 -1.11360e+01  7.25460e+00
       H -3.06070e+00 -1.11128e+01  7.12152e+00
       O  8.21944e+00 -4.78191e+00  7.58149e+00
       H  6.70312e+00 -3.77633e+00  7.25453e+00
       H -7.30974e+00 -3.75322e+00  7.12139e+00
       O  8.20378e+00 -9.52926e+00  6.13582e+00
       H  8.39564e+00 -9.51474e+00  4.31856e+00
       H  8.20221e+00 -7.73246e+00  6.69037e+00
       O -4.54344e+00 -2.16971e+00  6.13568e+00
       H -4.35161e+00 -2.15522e+00  4.31840e+00
       H -4.54506e+00 -3.72896e-01  6.69017e+00
       O -8.21947e+00  4.78210e+00 -1.31734e+01
       H  7.30974e+00  3.75335e+00 -1.36334e+01
       H -6.70314e+00  3.77651e+00 -1.35002e+01
       O -3.97046e+00  1.21415e+01 -1.31733e+01
       H -5.43745e+00  1.11127e+01 -1.36334e+01
       H -2.45410e+00  1.11360e+01 -1.35002e+01
       O -3.95479e+00  2.16971e+00 -7.82462e-01
       H -3.95303e+00  3.72884e-01 -2.27933e-01
       H -4.14646e+00  2.15509e+00 -2.59975e+00
       O -8.20376e+00  9.52923e+00 -7.82499e-01
       H -8.20200e+00  7.73238e+00 -2.27998e-01
       H -8.39546e+00  9.51472e+00 -2.59977e+00
       O -4.52774e+00  2.57749e+00 -6.25512e+00
       H -6.04400e+00  3.58312e+00 -6.58197e+00
       H -3.06066e+00  3.60618e+00 -6.71512e+00
       O  8.21949e+00  9.93715e+00 -6.25509e+00
       H  6.70318e+00  1.09426e+01 -6.58202e+00
       H -7.30970e+00  1.09659e+01 -6.71526e+00
       O  8.20366e+00  5.18988e+00 -7.70077e+00
       H  8.39552e+00  5.20437e+00 -9.51803e+00
       H  8.20217e+00  6.98669e+00 -7.14625e+00
       O -4.54337e+00  1.25494e+01 -7.70088e+00
       H -4.35159e+00  1.25639e+01 -9.51817e+00
       H -4.54500e+00  1.43462e+01 -7.14634e+00
       O -8.21952e+00  4.78190e+00  6.63226e-01
       H  7.30971e+00  3.75313e+00  2.03107e-01
       H -6.70317e+00  3.77635e+00  3.36440e-01
       O -3.97040e+00  1.21415e+01  6.63326e-01
       H -5.43738e+00  1.11127e+01  2.03185e-01
       H -2.45407e+00  1.11360e+01  3.36426e-01
       O -3.95476e+00  2.16964e+00  1.30541e+01
       H -3.95303e+00  3.72832e-01  1.36087e+01
       H -4.14651e+00  2.15510e+00  1.12369e+01
       O -8.20373e+00  9.52937e+00  1.30540e+01
       H -8.20206e+00  7.73252e+00  1.36085e+01
       H -8.39548e+00  9.51483e+00  1.12368e+01
       O -4.52770e+00  2.57756e+00  7.58140e+00
       H -6.04399e+00  3.58315e+00  7.25450e+00
       H -3.06066e+00  3.60630e+00  7.12138e+00
       O  8.21951e+00  9.93714e+00  7.58157e+00
       H  6.70319e+00  1.09427e+01  7.25463e+00
       H -7.30968e+00  1.09658e+01  7.12140e+00
       O  8.20369e+00  5.18993e+00  6.13578e+00
       H  8.39547e+00  5.20441e+00  4.31850e+00
       H  8.20212e+00  6.98674e+00  6.69030e+00
       O -4.54348e+00  1.25494e+01  6.13570e+00
       H -4.35158e+00  1.25639e+01  4.31845e+00
       H -4.54503e+00  1.43462e+01  6.69025e+00
       O  2.78573e-01 -9.93717e+00 -1.31734e+01
       H -1.18842e+00 -1.09659e+01 -1.36336e+01
       H  1.79493e+00 -1.09427e+01 -1.35002e+01
       O  4.52772e+00 -2.57751e+00 -1.31733e+01
       H  3.06068e+00 -3.60627e+00 -1.36334e+01
       H  6.04403e+00 -3.58305e+00 -1.35003e+01
       O  4.54334e+00 -1.25494e+01 -7.82465e-01
       H  4.54513e+00 -1.43463e+01 -2.27989e-01
       H  4.35168e+00 -1.25640e+01 -2.59974e+00
       O  2.94294e-01 -5.18980e+00 -7.82487e-01
       H  2.96032e-01 -6.98663e+00 -2.28053e-01
       H  1.02602e-01 -5.20427e+00 -2.59977e+00
       O  3.97042e+00 -1.21415e+01 -6.25517e+00
       H  2.45414e+00 -1.11359e+01 -6.58198e+00
       H  5.43747e+00 -1.11128e+01 -6.71526e+00
       O -2.78672e-01 -4.78194e+00 -6.25508e+00
       H -1.79498e+00 -3.77636e+00 -6.58199e+00
       H  1.18837e+00 -3.75320e+00 -6.71514e+00
       O -2.94511e-01 -9.52920e+00 -7.70081e+00
       H -1.02600e-01 -9.51466e+00 -9.51806e+00
       H -2.96005e-01 -7.73240e+00 -7.14625e+00
       O  3.95462e+00 -2.16972e+00 -7.70080e+00
       H  4.14654e+00 -2.15521e+00 -9.51804e+00
       H  3.95318e+00 -3.72879e-01 -7.14628e+00
       O  2.78541e-01 -9.93701e+00  6.63104e-01
       H -1.18842e+00 -1.09658e+01  2.03011e-01
       H  1.79493e+00 -1.09425e+01  3.36333e-01
       O  4.52773e+00 -2.57757e+00  6.63187e-01
       H  3.06068e+00 -3.60633e+00  2.03125e-01
       H  6.04402e+00 -3.58308e+00  3.36357e-01
       O  4.54332e+00 -1.25494e+01  1.30541e+01
       H  4.54518e+00 -1.43462e+01  1.36086e+01
       H  4.35169e+00 -1.25640e+01  1.12368e+01
       O  2.94281e-01 -5.18991e+00  1.30541e+01
       H  2.95995e-01 -6.98675e+00  1.36085e+01
       H  1.02570e-01 -5.20435e+00  1.12368e+01
       O  3.97044e+00 -1.21415e+01  7.58145e+00
       H  2.45413e+00 -1.11360e+01  7.25466e+00
       H  5.43745e+00 -1.11128e+01  7.12135e+00
       O -2.78601e-01 -4.78191e+00  7.58148e+00
       H -1.79495e+00 -3.77634e+00  7.25458e+00
       H  1.18839e+00 -3.75323e+00  7.12138e+00
       O -2.94501e-01 -9.52922e+00  6.13582e+00
       H -1.02637e-01 -9.51466e+00  4.31854e+00
       H -2.96013e-01 -7.73241e+00  6.69035e+00
       O  3.95462e+00 -2.16967e+00  6.13570e+00
       H  4.14656e+00 -2.15516e+00  4.31844e+00
       H  3.95315e+00 -3.72836e-01  6.69024e+00
       O  2.78636e-01  4.78206e+00 -1.31735e+01
       H -1.18832e+00  3.75329e+00 -1.36335e+01
       H  1.79499e+00  3.77651e+00 -1.35003e+01
       O  4.52773e+00  1.21415e+01 -1.31733e+01
       H  3.06066e+00  1.11127e+01 -1.36334e+01
       H  6.04403e+00  1.11360e+01 -1.35003e+01
       O  4.54332e+00  2.16970e+00 -7.82499e-01
       H  4.54510e+00  3.72872e-01 -2.27973e-01
       H  4.35161e+00  2.15513e+00 -2.59979e+00
       O  2.94188e-01  9.52923e+00 -7.82517e-01
       H  2.95976e-01  7.73239e+00 -2.28033e-01
       H  1.02486e-01  9.51470e+00 -2.59980e+00
       O  3.97041e+00  2.57752e+00 -6.25508e+00
       H  2.45414e+00  3.58307e+00 -6.58188e+00
       H  5.43747e+00  3.60626e+00 -6.71516e+00
       O -2.78677e-01  9.93714e+00 -6.25506e+00
       H -1.79497e+00  1.09427e+01 -6.58203e+00
       H  1.18838e+00  1.09659e+01 -6.71517e+00
       O -2.94451e-01  5.18990e+00 -7.70074e+00
       H -1.02475e-01  5.20442e+00 -9.51799e+00
       H -2.95971e-01  6.98671e+00 -7.14623e+00
       O  3.95453e+00  1.25494e+01 -7.70088e+00
       H  4.14650e+00  1.25638e+01 -9.51813e+00
       H  3.95314e+00  1.43462e+01 -7.14638e+00
       O  2.78666e-01  4.78190e+00  6.63181e-01
       H -1.18838e+00  3.75314e+00  2.03219e-01
       H  1.79499e+00  3.77637e+00  3.36305e-01
       O  4.52768e+00  1.21415e+01  6.63233e-01
       H  3.06065e+00  1.11127e+01  2.03130e-01
       H  6.04402e+00  1.11359e+01  3.36318e-01
       O  4.54337e+00  2.16963e+00  1.30541e+01
       H  4.54515e+00  3.72778e-01  1.36085e+01
       H  4.35165e+00  2.15511e+00  1.12368e+01
       O  2.94139e-01  9.52935e+00  1.30540e+01
       H  2.96028e-01  7.73252e+00  1.36085e+01
       H  1.02508e-01  9.51480e+00  1.12368e+01
       O  3.97044e+00  2.57752e+00  7.58146e+00
       H  2.45409e+00  3.58312e+00  7.25468e+00
       H  5.43745e+00  3.60627e+00  7.12136e+00
       O -2.78642e-01  9.93713e+00  7.58156e+00
       H -1.79498e+00  1.09426e+01  7.25459e+00
       H  1.18834e+00  1.09658e+01  7.12145e+00
       O -2.94462e-01  5.18993e+00  6.13575e+00
       H -1.02485e-01  5.20444e+00  4.31854e+00
       H -2.95928e-01  6.98677e+00  6.69031e+00
       O  3.95461e+00  1.25493e+01  6.13580e+00
       H  4.14651e+00  1.25638e+01  4.31854e+00
       H  3.95313e+00  1.43462e+01  6.69028e+00
192
# CELL(abcABC):   16.99620    29.43815    27.67315    90.00000    90.00000    90.00000  Step:          10  Bead:      23 positions{atomic_unit}  cell{atomic_unit}
       O -8.20789e+00 -9.93586e+00 -1.31618e+01
       H  7.35005e+00 -1.08287e+01 -1.36959e+01
       H -6.59935e+00 -1.09146e+01 -1.34407e+01
       O -3.93097e+00 -2.52972e+00 -1.31354e+01
       H -5.52716e+00 -3.80014e+00 -1.35755e+01
       H -2.34101e+00 -3.57067e+00 -1.35806e+01
       O -3.90823e+00 -1.25612e+01 -8.07706e-01
       H -3.88271e+00 -1.44319e+01 -2.85271e-01
       H -4.02963e+00 -1.25676e+01 -2.65272e+00
       O -8.16573e+00 -5.20370e+00 -7.97819e-01
       H -8.21539e+00 -6.79038e+00 -5.37225e-02
       H -8.28266e+00 -5.21371e+00 -2.49052e+00
       O -4.51512e+00 -1.21470e+01 -6.24105e+00
       H -5.94425e+00 -1.09874e+01 -6.84891e+00
       H -2.96467e+00 -1.12372e+01 -6.63139e+00
       O  8.23923e+00 -4.75800e+00 -6.28017e+00
       H  6.75618e+00 -3.85423e+00 -6.53965e+00
       H -7.27334e+00 -3.69795e+00 -6.65444e+00
       O  8.23072e+00 -9.56522e+00 -7.68423e+00
       H  8.40875e+00 -9.46984e+00 -9.56293e+00
       H  8.11685e+00 -7.77963e+00 -6.98373e+00
       O -4.53662e+00 -2.17598e+00 -7.68989e+00
       H -4.15195e+00 -2.03840e+00 -9.52887e+00
       H -4.59742e+00 -3.27607e-01 -7.19866e+00
       O -8.22713e+00 -9.89059e+00  6.61261e-01
       H  7.40054e+00 -1.10703e+01  1.75799e-01
       H -6.76568e+00 -1.08295e+01  4.82517e-01
       O -3.94333e+00 -2.54364e+00  6.56464e-01
       H -5.52745e+00 -3.58059e+00  2.30763e-01
       H -2.55795e+00 -3.60854e+00  4.30371e-01
       O -3.97882e+00 -1.25339e+01  1.30209e+01
       H -4.09262e+00 -1.44131e+01  1.36321e+01
       H -4.07342e+00 -1.25301e+01  1.12707e+01
       O -8.18643e+00 -5.14902e+00  1.30610e+01
       H -8.12960e+00 -6.99741e+00  1.36526e+01
       H -8.39317e+00 -5.24464e+00  1.12160e+01
       O -4.55779e+00 -1.21328e+01  7.57120e+00
       H -6.31389e+00 -1.10862e+01  7.29494e+00
       H -3.24092e+00 -1.11069e+01  7.14291e+00
       O  8.22622e+00 -4.74617e+00  7.57564e+00
       H  6.51014e+00 -3.74424e+00  7.25099e+00
       H -7.35608e+00 -3.71933e+00  7.11054e+00
       O  8.17784e+00 -9.51771e+00  6.16036e+00
       H  8.34898e+00 -9.54768e+00  4.31804e+00
       H  8.36834e+00 -7.81924e+00  6.62582e+00
       O -4.50036e+00 -2.12943e+00  6.13488e+00
       H -4.33104e+00 -2.14751e+00  4.47324e+00
       H -4.70176e+00 -4.18759e-01  6.52577e+00
       O -8.22968e+00  4.78682e+00 -1.31492e+01
       H  7.29317e+00  3.70277e+00 -1.36063e+01
       H -6.71938e+00  3.59072e+00 -1.35118e+01
       O -4.01588e+00  1.21492e+01 -1.31572e+01
       H -5.51829e+00  1.12405e+01 -1.36648e+01
       H -2.43481e+00  1.12909e+01 -1.34143e+01
       O -3.93628e+00  2.16437e+00 -7.99086e-01
       H -3.92611e+00  2.08337e-01 -2.60382e-01
       H -4.33951e+00  2.29829e+00 -2.52670e+00
       O -8.21341e+00  9.47148e+00 -7.92683e-01
       H -8.20904e+00  7.61562e+00 -2.05315e-01
       H -8.40983e+00  9.46247e+00 -2.58115e+00
       O -4.55703e+00  2.60259e+00 -6.25403e+00
       H -6.00475e+00  3.56768e+00 -6.58897e+00
       H -3.12700e+00  3.71312e+00 -6.60222e+00
       O  8.15763e+00  9.91131e+00 -6.28394e+00
       H  6.78486e+00  1.09810e+01 -6.65083e+00
       H -7.16344e+00  1.10524e+01 -6.86367e+00
       O  8.21981e+00  5.18384e+00 -7.68395e+00
       H  8.44369e+00  5.22348e+00 -9.55134e+00
       H  8.26356e+00  6.85008e+00 -6.92061e+00
       O -4.50347e+00  1.25958e+01 -7.71280e+00
       H -4.33589e+00  1.25450e+01 -9.55275e+00
       H -4.66826e+00  1.43821e+01 -6.94255e+00
       O -8.24364e+00  4.74641e+00  6.53089e-01
       H  7.37119e+00  3.62693e+00  1.76383e-01
       H -6.81667e+00  3.62419e+00  3.08902e-01
       O -3.94100e+00  1.21464e+01  6.35610e-01
       H -5.59945e+00  1.10151e+01  1.65808e-01
       H -2.60861e+00  1.10797e+01  4.03872e-01
       O -3.97742e+00  2.20757e+00  1.29983e+01
       H -3.93553e+00  4.01454e-01  1.36642e+01
       H -4.28420e+00  1.99543e+00  1.12610e+01
       O -8.19904e+00  9.48767e+00  1.30670e+01
       H -8.31962e+00  7.67446e+00  1.36668e+01
       H -8.23930e+00  9.40522e+00  1.10585e+01
       O -4.53188e+00  2.58061e+00  7.65008e+00
       H -6.02498e+00  3.40824e+00  7.35876e+00
       H -3.03242e+00  3.58391e+00  7.05483e+00
       O  8.18755e+00  9.95950e+00  7.57096e+00
       H  6.77962e+00  1.09586e+01  7.19260e+00
       H -7.32459e+00  1.10916e+01  7.13206e+00
       O  8.20884e+00  5.13981e+00  6.14085e+00
       H  8.33874e+00  5.35692e+00  4.25878e+00
       H  8.16320e+00  7.02322e+00  6.68590e+00
       O -4.56004e+00  1.25613e+01  6.12981e+00
       H -4.31596e+00  1.24422e+01  4.24562e+00
       H -4.44092e+00  1.44534e+01  6.61517e+00
       O  2.79673e-01 -9.89622e+00 -1.32268e+01
       H -1.27509e+00 -1.09546e+01 -1.37624e+01
       H  1.71508e+00 -1.09067e+01 -1.35756e+01
       O  4.51179e+00 -2.61980e+00 -1.32082e+01
       H  3.25726e+00 -3.49550e+00 -1.36807e+01
       H  6.12807e+00 -3.48436e+00 -1.35992e+01
       O  4.50958e+00 -1.25527e+01 -8.09894e-01
       H  4.61367e+00 -1.41725e+01 -2.18228e-01
       H  4.29353e+00 -1.24113e+01 -2.72430e+00
       O  3.29701e-01 -5.13699e+00 -8.00328e-01
       H  1.68887e-01 -7.11472e+00 -1.26415e-01
       H  3.82632e-02 -5.19616e+00 -2.59867e+00
       O  3.96839e+00 -1.21450e+01 -6.26835e+00
       H  2.42927e+00 -1.11018e+01 -6.55538e+00
       H  5.51151e+00 -1.10029e+01 -6.71051e+00
       O -2.49937e-01 -4.78823e+00 -6.26372e+00
       H -1.91501e+00 -3.93818e+00 -6.51486e+00
       H  1.23647e+00 -3.70298e+00 -6.98248e+00
       O -2.49710e-01 -9.52707e+00 -7.71379e+00
       H -1.68607e-01 -9.34363e+00 -9.61410e+00
       H -1.44030e-01 -7.63746e+00 -7.25232e+00
       O  3.96883e+00 -2.16495e+00 -7.71117e+00
       H  3.97644e+00 -2.08713e+00 -9.42686e+00
       H  3.98973e+00 -2.48478e-01 -7.13532e+00
       O  3.08528e-01 -9.92816e+00  5.86874e-01
       H -1.12402e+00 -1.10090e+01 -2.46116e-02
       H  1.74025e+00 -1.08149e+01  3.33045e-01
       O  4.53785e+00 -2.60678e+00  6.53250e-01
       H  3.25063e+00 -3.69106e+00  2.38445e-01
       H  6.07189e+00 -3.66320e+00  2.90384e-01
       O  4.52664e+00 -1.25317e+01  1.30640e+01
       H  4.51169e+00 -1.43542e+01  1.34938e+01
       H  4.16820e+00 -1.25811e+01  1.12152e+01
       O  3.10274e-01 -5.20984e+00  1.30643e+01
       H  3.41546e-01 -7.04337e+00  1.37137e+01
       H  9.39103e-02 -5.35817e+00  1.12646e+01
       O  3.95671e+00 -1.21715e+01  7.57284e+00
       H  2.55192e+00 -1.11212e+01  7.27660e+00
       H  5.55287e+00 -1.10436e+01  7.12861e+00
       O -2.79169e-01 -4.78534e+00  7.55707e+00
       H -1.83306e+00 -3.83473e+00  7.20353e+00
       H  1.40542e+00 -3.94823e+00  7.24829e+00
       O -2.68904e-01 -9.53695e+00  6.12412e+00
       H -2.26698e-01 -9.61479e+00  4.41098e+00
       H -2.84914e-01 -7.71651e+00  6.54949e+00
       O  3.91427e+00 -2.17395e+00  6.12079e+00
       H  4.11493e+00 -2.23388e+00  4.28659e+00
       H  3.96789e+00 -3.30322e-01  6.77575e+00
       O  3.09389e-01  4.79950e+00 -1.31580e+01
       H -1.19087e+00  3.84194e+00 -1.37315e+01
       H  1.76976e+00  3.67257e+00 -1.35169e+01
       O  4.51887e+00  1.21546e+01 -1.31870e+01
       H  3.25074e+00  1.10624e+01 -1.36179e+01
       H  6.12784e+00  1.11836e+01 -1.35362e+01
       O  4.56813e+00  2.16611e+00 -7.60823e-01
       H  4.75147e+00  3.84440e-01 -1.69998e-01
       H  4.28946e+00  2.22203e+00 -2.49625e+00
       O  2.67935e-01  9.56489e+00 -7.44210e-01
       H  2.48063e-01  7.72689e+00 -3.47630e-01
       H  1.75391e-01  9.53215e+00 -2.66968e+00
       O  3.94862e+00  2.57397e+00 -6.27194e+00
       H  2.47328e+00  3.54970e+00 -6.73661e+00
       H  5.39484e+00  3.69545e+00 -6.81364e+00
       O -2.90795e-01  9.96752e+00 -6.23549e+00
       H -1.71993e+00  1.10112e+01 -6.45301e+00
       H  1.05598e+00  1.10117e+01 -6.82051e+00
       O -3.10222e-01  5.15680e+00 -7.68961e+00
       H -3.13218e-02  5.22593e+00 -9.45570e+00
       H -3.34052e-01  7.12504e+00 -7.19100e+00
       O  3.94370e+00  1.25749e+01 -7.70079e+00
       H  4.33816e+00  1.25701e+01 -9.57224e+00
       H  3.91095e+00  1.41721e+01 -7.32527e+00
       O  2.86013e-01  4.80975e+00  6.39768e-01
       H -1.25392e+00  3.88984e+00  2.89137e-01
       H  1.82769e+00  3.65928e+00  5.33904e-01
       O  4.52553e+00  1.21015e+01  6.34433e-01
       H  2.84277e+00  1.10010e+01  2.26893e-01
       H  6.02941e+00  1.11165e+01  2.46270e-01
       O  4.54470e+00  2.19676e+00  1.30891e+01
       H  4.59136e+00  2.57300e-01  1.35603e+01
       H  4.39154e+00  2.30474e+00  1.12334e+01
       O  2.96479e-01  9.54586e+00  1.30572e+01
       H  3.23178e-01  7.68079e+00  1.37336e+01
       H  3.35271e-01  9.59265e+00  1.13577e+01
       O  3.99004e+00  2.57467e+00  7.58219e+00
       H  2.58552e+00  3.55689e+00  7.30605e+00
       H  5.42829e+00  3.64909e+00  7.09413e+00
       O -3.23783e-01  9.94929e+00  7.58218e+00
       H -1.82504e+00  1.09570e+01  7.15714e+00
       H  1.13997e+00  1.10511e+01  7.26540e+00
       O -2.91108e-01  5.20040e+00  6.17621e+00
       H -4.56755e-02  5.33016e+00  4.39665e+00
       H -4.45469e-01  6.88742e+00  6.63250e+00
       O  3.93746e+00  1.25733e+01  6.11030e+00
       H  4.09840e+00  1.25714e+01  4.12768e+00
       H  3.82544e+00  1.43845e+01  6.63900e+00
192
# CELL(abcABC):   16.99620    29.43815    27.67315    90.00000    90.00000    90.00000  Step:          20  Bead:      23 positions{atomic_unit}  cell{atomic_unit}
       O -8.22916e+00 -9.93668e+00 -1.31202e+01
       H  7.28686e+00 -1.09236e+01 -1.34854e+01
       H -6.71564e+00 -1.07402e+01 -1.34769e+01
       O -3.93641e+00 -2.53923e+00 -1.31292e+01
       H -5.54609e+00 -3.83166e+00 -1.36000e+01
       H -2.32710e+00 -3.44800e+00 -1.37036e+01
       O -3.89526e+00 -1.25300e+01 -7.95356e-01
       H -3.91157e+00 -1.42541e+01 -3.63047e-01
       H -3.98769e+00 -1.25658e+01 -2.68427e+00
       O -8.19793e+00 -5.23208e+00 -7.75872e-01
       H -8.17760e+00 -6.81313e+00 -9.31978e-02
       H -8.39699e+00 -5.28861e+00 -2.51056e+00
       O -4.53607e+00 -1.21743e+01 -6.24682e+00
       H -5.96976e+00 -1.09597e+01 -6.92129e+00
       H -2.81922e+00 -1.13097e+01 -6.65552e+00
       O  8.24936e+00 -4.72891e+00 -6.30536e+00
       H  6.79109e+00 -3.92564e+00 -6.52767e+00
       H -7.33827e+00 -3.62452e+00 -6.77479e+00
       O  8.21965e+00 -9.54151e+00 -7.67913e+00
       H  8.43570e+00 -9.41834e+00 -9.65720e+00
       H  8.05324e+00 -7.80695e+00 -6.94901e+00
       O -4.52224e+00 -2.17070e+00 -7.66317e+00
       H -4.17686e+00 -2.10144e+00 -9.40244e+00
       H -4.59573e+00 -5.36729e-01 -7.19379e+00
       O -8.26286e+00 -9.89686e+00  6.59834e-01
       H  7.30986e+00 -1.11006e+01  1.57133e-01
       H -6.78706e+00 -1.08219e+01  2.71145e-01
       O -3.88843e+00 -2.53616e+00  6.48084e-01
       H -5.36486e+00 -3.73269e+00  3.74652e-01
       H -2.54874e+00 -3.65501e+00  4.88981e-01
       O -3.99114e+00 -1.25267e+01  1.30272e+01
       H -4.05583e+00 -1.43402e+01  1.35506e+01
       H -4.05105e+00 -1.26192e+01  1.13389e+01
       O -8.21834e+00 -5.13653e+00  1.30748e+01
       H -8.07069e+00 -7.03739e+00  1.36645e+01
       H -8.41726e+00 -5.18029e+00  1.09962e+01
       O -4.56673e+00 -1.21882e+01  7.58450e+00
       H -6.24551e+00 -1.08892e+01  7.19123e+00
       H -3.29757e+00 -1.09897e+01  7.22508e+00
       O  8.22248e+00 -4.74351e+00  7.52724e+00
       H  6.48438e+00 -3.79731e+00  7.27584e+00
       H -7.34459e+00 -3.61810e+00  7.19526e+00
       O  8.19391e+00 -9.54653e+00  6.16425e+00
       H  8.40541e+00 -9.62830e+00  4.39126e+00
       H  8.51510e+00 -7.86531e+00  6.72156e+00
       O -4.47119e+00 -2.09666e+00  6.10831e+00
       H -4.31709e+00 -2.32795e+00  4.44481e+00
       H -4.65305e+00 -4.35379e-01  6.56041e+00
       O -8.22303e+00  4.76279e+00 -1.31959e+01
       H  7.23688e+00  3.65899e+00 -1.35612e+01
       H -6.82536e+00  3.51163e+00 -1.35230e+01
       O -4.06886e+00  1.21902e+01 -1.31475e+01
       H -5.67940e+00  1.13154e+01 -1.35852e+01
       H -2.29190e+00  1.13551e+01 -1.33210e+01
       O -3.91433e+00  2.18303e+00 -7.82761e-01
       H -3.92272e+00  2.48508e-01 -3.89690e-01
       H -4.22349e+00  2.32776e+00 -2.59180e+00
       O -8.20010e+00  9.47826e+00 -8.02788e-01
       H -8.17096e+00  7.80597e+00  1.95966e-05
       H -8.50095e+00  9.30369e+00 -2.51257e+00
       O -4.56986e+00  2.59422e+00 -6.23214e+00
       H -6.09817e+00  3.42998e+00 -6.63685e+00
       H -3.14228e+00  3.85651e+00 -6.58871e+00
       O  8.16582e+00  9.87234e+00 -6.28558e+00
       H  6.61287e+00  1.09139e+01 -6.71635e+00
       H -7.27345e+00  1.10522e+01 -6.93765e+00
       O  8.23777e+00  5.25176e+00 -7.69482e+00
       H  8.46538e+00  5.26035e+00 -9.64577e+00
       H  8.29050e+00  6.89082e+00 -6.73557e+00
       O -4.49399e+00  1.26199e+01 -7.73662e+00
       H -4.36277e+00  1.24979e+01 -9.58174e+00
       H -4.78066e+00  1.41326e+01 -7.07484e+00
       O -8.21431e+00  4.71946e+00  6.54279e-01
       H  7.13500e+00  3.69291e+00  1.94533e-01
       H -6.78559e+00  3.43070e+00  3.39037e-01
       O -3.93716e+00  1.21229e+01  6.18393e-01
       H -5.44023e+00  1.10763e+01  2.34624e-01
       H -2.61063e+00  1.11066e+01  3.90070e-01
       O -3.97735e+00  2.16520e+00  1.29810e+01
       H -3.94551e+00  2.10804e-01  1.35512e+01
       H -4.31283e+00  1.89750e+00  1.12714e+01
       O -8.19128e+00  9.52322e+00  1.30535e+01
       H -8.32814e+00  7.63352e+00  1.34451e+01
       H -8.32883e+00  9.45194e+00  1.11509e+01
       O -4.57134e+00  2.58955e+00  7.59914e+00
       H -6.17233e+00  3.35353e+00  7.41654e+00
       H -2.94688e+00  3.52088e+00  7.08749e+00
       O  8.17906e+00  9.96842e+00  7.56877e+00
       H  6.56839e+00  1.12200e+01  7.20365e+00
       H -7.39045e+00  1.11928e+01  7.12295e+00
       O  8.20862e+00  5.12473e+00  6.19303e+00
       H  8.44664e+00  5.40542e+00  4.25954e+00
       H  8.15782e+00  7.06692e+00  6.90820e+00
       O -4.54809e+00  1.25384e+01  6.13313e+00
       H -4.30353e+00  1.23782e+01  4.18258e+00
       H -4.44180e+00  1.43840e+01  6.55870e+00
       O  2.31462e-01 -9.85269e+00 -1.32411e+01
       H -1.40292e+00 -1.07924e+01 -1.37018e+01
       H  1.66009e+00 -1.09273e+01 -1.34128e+01
       O  4.56154e+00 -2.62166e+00 -1.32384e+01
       H  3.34685e+00 -3.64016e+00 -1.38591e+01
       H  6.25181e+00 -3.51971e+00 -1.36022e+01
       O  4.51693e+00 -1.25622e+01 -8.48135e-01
       H  4.67154e+00 -1.41797e+01 -2.13276e-01
       H  4.41595e+00 -1.22800e+01 -2.71276e+00
       O  3.65853e-01 -5.14456e+00 -7.84138e-01
       H  3.30311e-01 -7.00365e+00 -1.65934e-01
       H -1.17277e-01 -5.08102e+00 -2.64743e+00
       O  3.98541e+00 -1.21350e+01 -6.26374e+00
       H  2.54315e+00 -1.10508e+01 -6.40303e+00
       H  5.49093e+00 -1.09303e+01 -6.63887e+00
       O -2.92392e-01 -4.76365e+00 -6.26590e+00
       H -1.96688e+00 -3.75764e+00 -6.57436e+00
       H  1.18800e+00 -3.57778e+00 -6.86579e+00
       O -2.17185e-01 -9.49396e+00 -7.69140e+00
       H -2.38315e-01 -9.43702e+00 -9.65454e+00
       H -1.05999e-01 -7.61921e+00 -7.35090e+00
       O  3.96621e+00 -2.18687e+00 -7.69406e+00
       H  3.86835e+00 -2.04589e+00 -9.41065e+00
       H  4.09401e+00 -9.11765e-02 -7.19635e+00
       O  3.21283e-01 -9.89576e+00  5.73509e-01
       H -1.05809e+00 -1.10459e+01 -5.35414e-02
       H  1.86885e+00 -1.08583e+01  4.55233e-01
       O  4.56874e+00 -2.63881e+00  5.87580e-01
       H  3.24056e+00 -3.73997e+00  1.13003e-01
       H  6.12751e+00 -3.73246e+00  3.88043e-01
       O  4.54070e+00 -1.25349e+01  1.30018e+01
       H  4.50260e+00 -1.44087e+01  1.36548e+01
       H  4.23809e+00 -1.25519e+01  1.13072e+01
       O  3.13520e-01 -5.23289e+00  1.30858e+01
       H  2.67772e-01 -7.00635e+00  1.34999e+01
       H  2.37850e-01 -5.20085e+00  1.13349e+01
       O  3.93385e+00 -1.21710e+01  7.58054e+00
       H  2.66662e+00 -1.11695e+01  7.22558e+00
       H  5.51415e+00 -1.09651e+01  7.18061e+00
       O -2.83832e-01 -4.77480e+00  7.58819e+00
       H -1.85680e+00 -3.71084e+00  7.28293e+00
       H  1.30130e+00 -3.82917e+00  7.22240e+00
       O -2.90593e-01 -9.55993e+00  6.13093e+00
       H -1.74117e-01 -9.64546e+00  4.24153e+00
       H -3.67914e-01 -7.68114e+00  6.47000e+00
       O  3.94197e+00 -2.17251e+00  6.13488e+00
       H  4.14452e+00 -2.37709e+00  4.17967e+00
       H  3.92124e+00 -3.64886e-01  6.76426e+00
       O  3.17746e-01  4.79167e+00 -1.31470e+01
       H -1.07799e+00  3.95099e+00 -1.38350e+01
       H  1.75327e+00  3.75419e+00 -1.36516e+01
       O  4.50734e+00  1.21179e+01 -1.31961e+01
       H  3.20373e+00  1.10262e+01 -1.34918e+01
       H  6.12979e+00  1.11577e+01 -1.35073e+01
       O  4.60445e+00  2.14646e+00 -7.34979e-01
       H  4.60650e+00  4.32982e-01 -2.39483e-01
       H  4.30879e+00  2.44268e+00 -2.38173e+00
       O  2.29235e-01  9.56837e+00 -7.60566e-01
       H  3.36970e-01  7.73901e+00 -4.05895e-01
       H  2.96680e-01  9.50712e+00 -2.66264e+00
       O  3.94374e+00  2.58672e+00 -6.19997e+00
       H  2.40053e+00  3.55074e+00 -6.69119e+00
       H  5.43541e+00  3.47440e+00 -6.78464e+00
       O -2.59520e-01  9.97934e+00 -6.23996e+00
       H -1.72662e+00  1.08273e+01 -6.38646e+00
       H  1.01764e+00  1.09658e+01 -6.70659e+00
       O -3.20739e-01  5.18012e+00 -7.66207e+00
       H -7.60201e-02  5.20189e+00 -9.36842e+00
       H -3.30698e-01  7.20009e+00 -7.32971e+00
       O  3.96042e+00  1.25686e+01 -7.73096e+00
       H  4.41472e+00  1.25520e+01 -9.44313e+00
       H  3.94555e+00  1.41848e+01 -7.36897e+00
       O  3.01772e-01  4.80137e+00  6.51360e-01
       H -1.08810e+00  3.95974e+00  4.81044e-01
       H  1.82046e+00  3.52557e+00  5.86015e-01
       O  4.52513e+00  1.20735e+01  6.38272e-01
       H  2.91493e+00  1.12094e+01  3.53246e-01
       H  6.14705e+00  1.11559e+01  2.77833e-01
       O  4.54492e+00  2.18240e+00  1.30711e+01
       H  4.67384e+00  1.02132e-01  1.34451e+01
       H  4.35764e+00  2.31126e+00  1.13429e+01
       O  2.74438e-01  9.55004e+00  1.30523e+01
       H  6.03359e-01  7.62796e+00  1.38920e+01
       H  4.57297e-01  9.72911e+00  1.13382e+01
       O  3.99649e+00  2.56093e+00  7.60749e+00
       H  2.59244e+00  3.55702e+00  7.20787e+00
       H  5.30547e+00  3.57476e+00  6.87385e+00
       O -2.98060e-01  9.90886e+00  7.58502e+00
       H -1.62682e+00  1.10341e+01  7.30207e+00
       H  1.09654e+00  1.10120e+01  7.20743e+00
       O -2.75733e-01  5.21645e+00  6.16328e+00
       H -6.91478e-02  5.39473e+00  4.46363e+00
       H -4.96559e-01  6.88098e+00  6.65177e+00
       O  3.92226e+00  1.25354e+01  6.09003e+00
       H  4.18892e+00  1.26563e+01  4.13190e+00
       H  3.87140e+00  1.42611e+01  6.70637e+00
192
# CELL(abcABC):   16.99620    29.43815    27.67315    90.00000    90.00000    90.00000  Step:          30  Bead:      23 positions{atomic_unit}  cell{atomic_unit}
       O -8.24510e+00 -9.98377e+00 -1.31103e+01
       H  7.18486e+00 -1.09322e+01 -1.33618e+01
       H -6.66642e+00 -1.07273e+01 -1.35869e+01
       O -3.93012e+00 -2.54734e+00 -1.31188e+01
       H -5.50456e+00 -3.89367e+00 -1.35603e+01
       H -2.30036e+00 -3.32203e+00 -1.36678e+01
       O -3.93980e+00 -1.25173e+01 -7.89417e-01
       H -3.93911e+00 -1.43023e+01 -4.03612e-01
       H -4.06800e+00 -1.25710e+01 -2.57440e+00
       O -8.21277e+00 -5.23176e+00 -7.42533e-01
       H -8.21914e+00 -6.82777e+00 -1.57476e-01
       H -8.63529e+00 -5.31674e+00 -2.59578e+00
       O -4.56767e+00 -1.21657e+01 -6.19884e+00
       H -5.81530e+00 -1.09389e+01 -6.91098e+00
       H -2.92017e+00 -1.12421e+01 -6.63365e+00
       O  8.28149e+00 -4.71951e+00 -6.34102e+00
       H  6.78213e+00 -3.93854e+00 -6.52666e+00
       H -7.46372e+00 -3.54289e+00 -6.74268e+00
       O  8.21996e+00 -9.50975e+00 -7.71441e+00
       H  8.55328e+00 -9.36904e+00 -9.67018e+00
       H  7.76797e+00 -7.89246e+00 -6.91220e+00
       O -4.51237e+00 -2.18714e+00 -7.65439e+00
       H -4.05772e+00 -2.14622e+00 -9.42576e+00
       H -4.67852e+00 -4.83654e-01 -7.17146e+00
       O -8.28611e+00 -9.86537e+00  6.77708e-01
       H  7.40036e+00 -1.12702e+01  2.60041e-01
       H -6.78255e+00 -1.08637e+01  1.12873e-01
       O -3.92332e+00 -2.52988e+00  6.79242e-01
       H -5.14254e+00 -3.88411e+00  5.72351e-01
       H -2.71112e+00 -3.65899e+00  4.50150e-01
       O -4.00673e+00 -1.25455e+01  1.30617e+01
       H -4.03667e+00 -1.43244e+01  1.35570e+01
       H -4.12938e+00 -1.26042e+01  1.13808e+01
       O -8.24057e+00 -5.09201e+00  1.30815e+01
       H -8.01243e+00 -6.94638e+00  1.37819e+01