192
# CELL(abcABC):   16.99620    29.43815    27.67315    90.00000    90.00000    90.00000  Step:           0  Bead:      30 velocities{atomic_unit}  cell{atomic_unit}
       O  4.71941e-04 -1.18891e-03 -1.58585e-03
       H  7.00658e-03  4.75791e-03  4.23671e-03
       H -1.15680e-03 -5.19075e-03 -1.08609e-03
       O  7.14236e-05 -1.21262e-03 -5.48684e-04
       H -5.36948e-03  3.39570e-04 -4.75819e-07
       H  1.29179e-03  3.67501e-03  1.06846e-03
       O  2.42364e-04 -1.62619e-05  4.95768e-04
       H -1.74442e-04 -3.04946e-03 -2.98336e-03
       H -1.62107e-04  6.82850e-04 -4.79489e-04
       O -7.84274e-04 -5.11386e-04 -1.45538e-03
       H -3.75611e-03  6.56893e-03 -6.50040e-04
       H -3.19921e-03 -2.00757e-03 -1.40041e-04
       O -2.67691e-04 -5.62568e-04  6.27914e-05
       H  7.23874e-04  2.83982e-03  3.91035e-03
       H -9.57959e-04 -8.39180e-03  2.45292e-03
       O  3.37575e-04 -1.45164e-04  8.04127e-04
       H  3.61375e-03  2.57026e-03 -4.66759e-03
       H  4.07929e-03  3.54636e-03  3.48535e-03
       O -4.11765e-04  5.61113e-04 -1.31190e-04
       H -5.19618e-03  1.68631e-03 -8.83437e-04
       H -2.41749e-03 -2.82024e-03 -1.97989e-03
       O  2.46674e-03  1.35996e-03  8.02432e-04
       H  4.79051e-03 -9.53984e-03  3.36273e-04
       H -4.10202e-03  5.89547e-04  2.25784e-03
       O -3.96719e-04 -2.08257e-04 -2.49351e-04
       H  2.03764e-03 -3.28676e-03  1.46589e-03
       H -5.71441e-03 -1.22840e-03  7.68650e-04
       O -7.80771e-04 -1.74963e-03  5.50333e-04
       H -1.55392e-03 -2.10034e-03  7.42709e-03
       H -5.30255e-03 -9.28291e-04  4.88455e-03
       O  4.46964e-04  1.17923e-03  4.66462e-04
       H -5.00949e-03  2.21374e-03 -2.71516e-03
       H  4.54564e-03  5.91537e-04  5.26922e-04
       O  2.24284e-04  1.57359e-03  4.81424e-04
       H -1.34805e-04  9.93379e-04 -3.11859e-04
       H  1.63003e-03 -6.97246e-03  3.56301e-03
       O -4.25230e-04 -1.13719e-03 -5.85614e-04
       H -1.42460e-04 -1.83017e-03  9.70371e-04
       H -4.13736e-03 -2.11815e-03 -1.93340e-04
       O  7.36010e-04 -1.16312e-04 -8.25597e-05
       H -3.32725e-03 -3.24195e-03  5.07517e-03
       H  6.47345e-03  2.67843e-03  2.65408e-03
       O  1.00548e-03 -1.02907e-03 -1.83694e-04
       H -3.95896e-03  4.05576e-03  3.37223e-03
       H -5.56186e-03  1.54723e-03  6.27165e-03
       O  5.32487e-04  2.17222e-03 -8.05559e-04
       H  3.26979e-04  6.16977e-04  4.75481e-03
       H -7.52548e-04  1.28938e-03 -2.40716e-03
       O -1.01695e-04  1.38807e-04 -1.91135e-04
       H  3.56475e-03 -1.79987e-03 -2.72799e-03
       H  1.85629e-03 -4.79683e-03 -1.04530e-03
       O -8.09248e-04  1.22857e-03  7.46654e-04
       H  2.82110e-03 -1.29354e-04 -1.00743e-04
       H  1.02975e-03 -7.20603e-04  1.35817e-03
       O  8.61998e-04  7.57485e-04 -8.70559e-04
       H  1.04285e-03 -5.84996e-03  4.49355e-03
       H  4.93243e-03 -3.44117e-04  1.11305e-03
       O -2.53374e-04  2.91699e-04 -1.03629e-03
       H  5.41240e-03  2.43821e-03  1.53368e-03
       H  6.05012e-03 -3.62047e-03 -4.65070e-03
       O  1.56168e-04  2.11496e-04 -3.21566e-04
       H  6.19273e-03 -2.13391e-03  7.28023e-03
       H -6.91085e-05 -2.01597e-03 -2.74612e-03
       O -8.37065e-05 -8.56762e-04 -3.58356e-04
       H -7.68831e-03  2.97610e-03  1.68875e-03
       H  1.59722e-03  5.31934e-03  1.76949e-03
       O  4.52199e-04 -3.39362e-04 -1.15086e-03
       H  1.84134e-03 -1.66825e-03 -1.33095e-03
       H -5.99456e-03 -1.26089e-03 -5.21380e-03
       O -2.59978e-05 -1.12510e-03  4.07721e-04
       H -3.81982e-04  5.50353e-03  2.39093e-03
       H  2.00801e-03 -6.04565e-03  2.32392e-04
       O -1.53657e-04 -1.47739e-03 -6.38754e-04
       H -6.13997e-03 -1.54458e-03  2.38265e-03
       H -1.39136e-03 -4.34403e-04 -4.05948e-03
       O  7.19522e-04  8.31157e-04  4.88584e-04
       H  3.01028e-03  4.13897e-03  7.20035e-03
       H -3.87651e-04 -3.02793e-04 -1.52246e-03
       O  4.37185e-04  1.44746e-04 -9.80910e-04
       H  3.88203e-03  3.26915e-03  5.15677e-03
       H -2.74160e-03  4.57254e-03  1.94025e-03
       O  1.14203e-03 -7.21653e-05  1.86604e-04
       H -3.16286e-03  5.14898e-03 -2.26139e-03
       H -8.65874e-04 -8.58043e-03 -2.22956e-04
       O  2.73447e-05  7.80117e-04  1.63882e-04
       H  6.50966e-04 -5.28015e-03 -4.79199e-03
       H  3.13732e-03 -9.01915e-04  5.84935e-04
       O  1.77924e-03  1.95353e-04  7.58525e-04
       H -8.71739e-04  3.61488e-03 -1.78001e-03
       H  6.79079e-04  5.57954e-04  2.79558e-03
       O  4.34354e-04  6.49442e-04 -1.21674e-03
       H -4.21911e-05 -9.08942e-04 -3.08977e-03
       H  1.32588e-03 -1.54313e-03  3.83778e-03
       O  1.07333e-03  4.57715e-04  1.31511e-04
       H  9.54836e-05  2.79945e-03  6.95152e-04
       H -6.51808e-03  5.27082e-04  2.49135e-03
       O -9.78167e-04  1.56086e-03 -9.37650e-04
       H -1.63659e-03 -6.34889e-03 -6.61831e-04
       H  2.06710e-03 -6.55382e-03  9.64873e-03
       O  2.07187e-04 -5.38122e-04 -1.27000e-03
       H  1.24910e-03 -9.14078e-04  6.22779e-03
       H  5.76012e-03  1.73608e-03 -3.33248e-03
       O  1.73416e-03 -6.22098e-04  1.09638e-03
       H  1.24672e-03 -3.99200e-03  4.29025e-03
       H  2.08838e-03  1.72821e-03  6.12681e-03
       O -6.91997e-05  1.91423e-04 -1.05613e-03
       H  5.32747e-03 -6.47164e-04  5.28544e-03
       H -3.87795e-03 -5.33557e-03 -1.41121e-03
       O  1.04496e-03  3.38080e-04  1.12950e-04
       H -4.47335e-03 -9.44017e-04 -1.89209e-03
       H -2.07849e-04 -2.87743e-03  1.22151e-03
       O -1.73554e-03  1.90767e-03  8.38265e-04
       H  6.15231e-03 -4.51387e-04 -1.81924e-04
       H  7.23694e-03  3.34988e-03  3.07287e-03
       O  1.05867e-03  8.48642e-04 -9.16374e-04
       H  7.09790e-03 -3.45573e-03 -6.60654e-03
       H  3.13541e-03 -4.00635e-03 -2.77312e-03
       O  2.17723e-03 -3.61145e-04 -2.33687e-04
       H -1.84141e-03 -1.38130e-03  1.56179e-03
       H -6.64865e-04 -5.99977e-03 -4.72465e-03
       O -1.46599e-03  4.65478e-04 -2.19400e-04
       H -1.08118e-03 -3.27830e-04  1.07297e-03
       H -1.04431e-03  5.76482e-03 -1.37090e-03
       O -1.43845e-03 -8.38029e-04 -9.69704e-04
       H  2.85764e-03 -4.32571e-04  6.83644e-03
       H -3.29109e-03 -5.21767e-03 -2.01202e-03
       O  5.74918e-04 -7.71273e-04  1.06860e-03
       H -1.81042e-03  6.08529e-03 -3.22372e-03
       H -2.21079e-03  1.61536e-03  1.15961e-03
       O  1.30755e-03 -1.01082e-03 -2.41679e-03
       H  6.08310e-04 -2.90332e-03  1.52721e-03
       H  3.06199e-05  5.01218e-03 -3.86854e-03
       O -3.54410e-04  1.23540e-04 -1.41381e-04
       H  3.05948e-03  1.80806e-03 -1.79079e-03
       H  5.04932e-03  3.45376e-03 -3.69380e-04
       O  3.93685e-04  2.74874e-04 -3.73616e-04
       H  4.86475e-03  2.15584e-03 -4.28352e-03
       H  1.92870e-03  2.62020e-03 -3.30512e-03
       O -1.61785e-03 -3.01764e-04  3.26101e-04
       H -5.92882e-03 -5.31427e-03  5.37917e-03
       H  7.33416e-03 -2.92958e-03 -1.26117e-03
       O -2.44242e-04 -1.49350e-03 -1.08891e-03
       H  8.52975e-04  6.95910e-04  2.16481e-03
       H  8.05849e-03 -5.83619e-03  1.94018e-03
       O -5.89193e-04 -1.77920e-03  8.62650e-04
       H -6.31746e-04  7.89389e-04  1.46271e-03
       H -4.11020e-03 -5.81574e-03  8.43843e-03
       O -9.96341e-04 -1.17449e-03  1.43426e-03
       H -3.04012e-04  2.05563e-03  1.12671e-03
       H -7.22080e-03 -2.32029e-03  3.12527e-03
       O -1.50287e-03 -8.18986e-04 -2.71243e-04
       H  8.14796e-03 -3.31715e-03 -1.83433e-03
       H  1.03034e-03  3.42166e-03  4.68351e-03
       O -5.64885e-04  4.67606e-04 -5.41950e-04
       H  4.23102e-04 -3.26958e-03 -5.60207e-04
       H  2.41795e-03 -1.83592e-03  3.45813e-03
       O  1.20557e-03  7.39059e-05  1.44187e-04
       H  5.91923e-04 -4.07013e-03 -4.19874e-03
       H -1.17825e-03 -1.87120e-03  1.70185e-03
       O  7.20251e-04  1.89886e-04  9.00982e-04
       H -3.08182e-03 -5.17902e-03  6.05548e-03
       H -3.39798e-03 -2.98419e-03  4.83742e-03
       O -1.76233e-04  1.78520e-04  1.00772e-03
       H  1.26656e-03  3.79562e-04 -2.21641e-03
       H -5.56829e-03 -1.39693e-03  3.50244e-03
       O -6.68002e-04  1.21783e-03  1.19086e-03
       H -2.63260e-03  3.36441e-03 -1.17895e-03
       H -4.76413e-03 -7.81951e-04 -1.69775e-03
       O -6.72736e-04  3.59402e-05  1.21216e-03
       H  5.52742e-03  2.89133e-04  4.50414e-04
       H  8.30108e-03  2.02461e-03  5.74126e-04
       O  4.24054e-04 -9.39154e-04  3.94724e-04
       H  2.61687e-03 -3.93904e-03 -6.99210e-03
       H  7.76550e-04 -5.67263e-03  5.66323e-03
       O -7.65727e-04  1.56939e-03  4.68150e-04
       H -1.01667e-03 -3.90097e-03  3.56678e-03
       H -4.02983e-03  4.71904e-03  4.54134e-03
       O -1.61919e-05  1.79752e-04 -2.21935e-03
       H  3.91755e-03  2.05227e-03 -4.56530e-03
       H  4.58222e-03 -5.22219e-03 -2.93178e-04
       O  6.84507e-04 -9.80195e-04  1.11068e-03
       H -5.34634e-03  2.15737e-03  3.62079e-05
       H -3.96616e-03  7.48215e-05 -1.71510e-03
       O -9.26542e-05  1.17350e-04 -1.53526e-04
       H  2.51870e-03 -1.42621e-03  3.15828e-03
       H -1.00947e-03  4.50842e-04  1.02471e-02
       O -6.59924e-04  6.21772e-04  9.13978e-04
       H -2.52780e-03 -1.29870e-03 -2.50310e-03
       H -8.37092e-04  3.11631e-03 -4.66588e-03
       O -1.15726e-04  9.63486e-04  3.77074e-04
       H  3.74102e-03 -5.81644e-03  3.90130e-03
       H -9.05589e-04 -4.27503e-03  3.75953e-03
192
# CELL(abcABC):   16.99620    29.43815    27.67315    90.00000    90.00000    90.00000  Step:          10  Bead:      30 velocities{atomic_unit}  cell{atomic_unit}
       O -3.88695e-04  2.62775e-04  4.68445e-05
       H -4.47830e-03  4.00895e-04  2.46360e-03
       H  3.03141e-03  1.29432e-03  7.99935e-03
       O  9.14917e-04  3.89979e-04  1.44640e-03
       H -2.58385e-03  2.27923e-03 -8.42603e-04
       H  2.69967e-03 -6.65629e-04  1.56961e-03
       O  2.64256e-04 -1.99261e-04  7.77402e-04
       H -2.75522e-03 -6.36850e-03  4.24510e-04
       H -5.24137e-03 -4.76808e-03  5.60478e-03
       O  3.16862e-04 -3.02168e-04 -7.05626e-04
       H  4.44314e-04 -3.71818e-03 -6.41262e-03
       H -3.59932e-03 -3.61486e-03 -1.79598e-03
       O -1.54371e-04  1.31716e-05 -1.31966e-04
       H  4.23545e-04  8.08774e-03 -3.74933e-03
       H -1.38459e-03 -4.07408e-03 -3.64065e-03
       O  8.03740e-04  3.45079e-04  4.78993e-04
       H  3.31972e-03 -8.45623e-04  1.40624e-03
       H  1.40768e-03  5.39654e-03  6.64937e-04
       O -5.38228e-04 -2.35913e-05 -1.88602e-04
       H  4.04680e-03  3.51386e-04  1.81286e-03
       H  1.68690e-03 -1.32195e-04  1.40537e-03
       O -7.36557e-04  7.11665e-04 -1.58133e-05
       H  4.01068e-03 -2.15243e-03  3.44048e-05
       H  4.82303e-03 -9.72963e-04  3.68925e-04
       O -1.17660e-04 -8.43229e-04  6.53144e-04
       H -1.55168e-03  4.39252e-03 -3.63726e-04
       H  2.72267e-03 -5.77993e-03  1.09870e-02
       O  3.84551e-05  8.57824e-04  4.30267e-04
       H -1.81312e-03  5.51361e-03 -5.71425e-03
       H  2.72288e-03 -2.70808e-03  1.94364e-03
       O  4.91246e-04 -1.95028e-04 -1.50283e-04
       H -4.13478e-03  3.01200e-03 -1.53879e-03
       H  5.90313e-04  2.71666e-03 -8.61602e-03
       O  6.47625e-05  1.73862e-03  3.61209e-04
       H  4.59368e-03  2.41239e-04  1.17321e-03
       H -2.14213e-03  5.99828e-03 -1.63695e-03
       O -4.54109e-04  3.30886e-04 -1.87945e-04
       H -3.56382e-03  4.23899e-03 -2.98507e-03
       H -2.44261e-03  8.33694e-04 -4.76753e-03
       O  4.31149e-04  4.12794e-04  1.99771e-04
       H -2.69702e-03  4.19321e-03  3.70993e-03
       H -3.42137e-04  9.98373e-04 -1.28848e-02
       O -2.57619e-04  2.47223e-03  6.57337e-04
       H -8.90938e-04  2.57333e-04 -9.46736e-04
       H -7.80954e-03  3.99623e-03 -7.18090e-04
       O  7.40907e-04  5.74883e-04  1.26985e-03
       H -3.23488e-03 -2.14415e-03  1.33971e-04
       H -1.09477e-03 -1.38244e-03  5.92808e-03
       O  2.71737e-04  1.04128e-03  1.03481e-03
       H  6.91926e-04  1.71261e-03  8.21574e-03
       H -3.14757e-03  5.01867e-03  8.89717e-04
       O -4.97608e-04  2.83493e-04  1.04140e-04
       H -8.17290e-03 -1.92978e-03 -2.39031e-04
       H -2.89250e-03 -4.15704e-03  3.59439e-03
       O  8.66800e-04 -7.44693e-04 -9.40308e-04
       H -3.99036e-03 -1.04383e-03 -2.24431e-03
       H -1.54059e-03  3.72171e-03  9.11155e-04
       O -9.34655e-04  2.13901e-05 -9.17590e-04
       H -2.99976e-03 -1.00127e-03 -8.43538e-04
       H -2.87493e-03 -3.65321e-03  2.54859e-03
       O -3.87721e-04 -2.82296e-04 -3.58568e-05
       H  2.08791e-03 -5.95396e-03 -9.68694e-04
       H -2.32975e-03 -6.59016e-03  1.55869e-03
       O  1.17705e-04  9.55263e-05 -4.82872e-05
       H  4.97523e-03  3.65403e-03  4.28061e-03
       H -4.98797e-04 -1.10397e-03  3.35522e-03
       O  5.84661e-04  1.13041e-03  6.72764e-04
       H -6.08821e-05 -3.21450e-03  5.14534e-03
       H  3.24208e-03  3.05809e-03  5.12262e-03
       O -2.60082e-04 -3.24274e-04  9.35516e-04
       H -3.25230e-03  4.57506e-04  4.65143e-03
       H -3.37295e-03  3.36843e-03 -1.89932e-03
       O -1.84402e-04  4.66766e-04  5.93380e-04
       H -9.64250e-04  9.23121e-04  3.16998e-03
       H -1.85230e-04  1.29105e-04  1.16196e-03
       O  1.52312e-03  5.68546e-04  2.61248e-04
       H -2.93587e-03  6.69550e-04  6.89137e-03
       H -7.44155e-04  2.94570e-03 -2.15883e-03
       O  9.20023e-04  1.51811e-03 -1.93158e-04
       H  3.99365e-03 -6.31425e-03 -8.12509e-03
       H  3.38210e-04 -2.84053e-04 -1.29682e-03
       O -3.69639e-04 -6.30421e-04  1.49787e-03
       H -9.77235e-03 -1.70516e-03  5.79469e-03
       H  7.54097e-04  2.27742e-03  5.13906e-04
       O  3.47109e-04 -9.97379e-05 -3.59801e-04
       H -1.86397e-04  3.58722e-03  5.63249e-03
       H -2.12278e-03  3.52780e-03 -2.13445e-03
       O -6.96211e-04  3.71739e-05  1.14756e-03
       H  4.93815e-03 -1.34520e-03 -2.99030e-03
       H -4.82102e-03 -2.23341e-03  4.53638e-03
       O  3.66713e-04 -6.39519e-04 -1.33877e-03
       H -4.59849e-03  1.32545e-03 -1.19259e-03
       H -3.61356e-03  5.90886e-03  5.19446e-03
       O -7.47645e-04  1.10745e-03 -1.36179e-03
       H  5.87336e-04 -8.82172e-04 -2.32896e-03
       H -3.38042e-04 -4.92695e-03 -3.07825e-03
       O  1.32192e-03  1.51812e-03 -5.16477e-04
       H -2.05729e-03  2.65002e-03 -2.25449e-03
       H  3.01602e-03  3.67600e-03  3.42404e-03
       O  1.26836e-03  5.05221e-04  8.56418e-04
       H -1.80788e-03 -2.81767e-04 -1.04865e-03
       H  1.98324e-03 -3.05016e-03 -1.19728e-03
       O  1.16150e-03 -6.21889e-04  4.19603e-05
       H  3.99467e-03 -1.88492e-03  1.08252e-03
       H -3.35624e-03  7.27116e-03  7.64133e-05
       O -5.01336e-05 -1.23715e-03 -3.76222e-04
       H  9.63855e-04 -3.63842e-05 -1.11907e-02
       H -5.74356e-03  4.62186e-03 -1.39888e-04
       O  2.51196e-04 -1.04385e-03 -2.49442e-04
       H -5.30439e-04 -3.48648e-03 -2.72012e-03
       H -2.56956e-03  2.54037e-03 -8.12373e-04
       O  1.05112e-03 -5.24070e-04  6.98074e-04
       H  3.81965e-03 -2.25654e-03 -3.13982e-03
       H  1.53065e-03 -2.20102e-03  1.35744e-03
       O  3.18251e-04 -2.20448e-04 -1.24580e-04
       H -2.66104e-03  5.52037e-04 -3.37034e-03
       H  3.25864e-03 -5.27873e-03  2.32570e-03
       O -3.78092e-04  6.74521e-04  5.75866e-04
       H  3.39076e-03 -3.92192e-03 -3.24125e-04
       H  2.62188e-03 -1.96623e-03  5.64797e-03
       O -3.25209e-04  6.65465e-04 -3.13687e-04
       H -6.61831e-04 -1.26277e-03 -8.26717e-04
       H  8.93639e-03  2.41718e-03 -2.57387e-03
       O -1.04383e-04  3.84559e-04  1.20158e-03
       H -2.26295e-03  3.37032e-05 -1.62870e-03
       H -2.31058e-03  4.76869e-03  4.01354e-03
       O  1.11243e-03 -3.69180e-04  7.50858e-04
       H  2.09356e-03  3.89624e-03  2.25674e-03
       H  6.34739e-03  2.33743e-03  4.64415e-03
       O  1.16632e-03  1.16138e-03  9.98391e-04
       H  6.79674e-03  2.08457e-03  2.64957e-03
       H  2.56723e-04  6.03897e-04  1.79995e-03
       O -3.18528e-04  1.36475e-03  2.86012e-04
       H -7.65499e-04  1.49134e-03  2.42008e-03
       H -1.91725e-03 -2.17158e-03  5.22066e-03
       O -2.61677e-04  7.98562e-04 -3.56869e-05
       H  5.40273e-03 -3.68249e-03  9.94193e-03
       H -4.61285e-03 -7.25673e-03  1.01911e-05
       O -1.63859e-03 -8.89358e-04  6.30997e-04
       H -7.87924e-03  4.81304e-04 -1.01620e-03
       H  1.40555e-03 -1.88358e-03  1.16227e-03
       O  8.39629e-04  3.33197e-04  3.97910e-04
       H  8.49676e-04 -2.53494e-03 -4.38320e-04
       H  7.12612e-03  4.29154e-03  3.73475e-03
       O -1.08962e-03 -1.18587e-03  5.54207e-04
       H -5.34478e-03 -6.08194e-03  2.26462e-03
       H -9.90833e-04  2.69164e-03  1.01302e-04
       O -1.59508e-03 -1.23883e-04 -1.13912e-03
       H -4.42788e-04 -1.77903e-03 -4.83425e-03
       H -2.45533e-03  1.77985e-03  8.90713e-04
       O -2.76552e-04  1.17891e-04  6.83489e-04
       H -4.37804e-03 -5.16292e-04  1.76478e-03
       H -1.99019e-03  2.74329e-03 -3.81669e-03
       O  3.41436e-04  2.49841e-04 -9.60712e-04
       H  2.10296e-03 -2.96412e-03  1.56544e-04
       H  9.20494e-04  7.48716e-04  9.19385e-04
       O  6.00599e-04  2.17362e-04 -5.28330e-04
       H -2.68075e-03  2.74439e-03 -4.18060e-03
       H  3.15893e-03  4.27326e-03  1.92059e-03
       O  5.15950e-04 -7.58531e-04  8.42472e-04
       H -3.06436e-03  4.86806e-03 -6.26979e-03
       H -1.69966e-03  4.14257e-03 -2.23967e-03
       O  1.11594e-03 -1.51795e-04 -4.30876e-04
       H  4.64351e-04  1.16993e-02 -5.46174e-04
       H  2.20910e-03 -2.98882e-03 -3.03360e-03
       O  1.02443e-03  3.76553e-04 -7.73542e-04
       H -2.33634e-04 -3.35440e-04 -8.68255e-03
       H  3.36972e-03  5.24930e-03  3.63004e-03
       O  1.96018e-04  3.87480e-04 -3.15089e-04
       H  2.30587e-03 -5.55189e-03 -6.03512e-03
       H  5.80145e-03  2.64857e-03 -1.96145e-03
       O  7.78609e-04 -9.94112e-05 -1.48145e-03
       H -2.27079e-03  1.49369e-03  4.49946e-03
       H  7.91296e-04  9.87887e-03 -2.24273e-03
       O  5.58514e-04  6.00293e-04 -3.05243e-04
       H  3.51094e-04  4.16016e-03 -5.27010e-03
       H  2.05182e-03 -2.25027e-03 -7.79247e-04
       O -5.59354e-04 -8.65198e-04 -7.30795e-04
       H -2.54395e-03 -3.72477e-04 -1.98978e-03
       H -4.90340e-03 -3.63822e-03 -2.56716e-03
       O  7.68660e-05 -9.59649e-04 -4.01129e-04
       H  5.75295e-04  2.62725e-04  3.71241e-03
       H  5.72099e-03  2.48927e-03  5.27077e-03
       O  1.78129e-04  1.54940e-03  1.51433e-03
       H -3.52953e-03 -3.85937e-03 -3.05633e-03
       H  5.37234e-03 -7.43330e-03 -3.33258e-03
       O -5.93076e-04 -5.94843e-04  1.48250e-03
       H  3.79435e-03  4.51947e-03 -4.91259e-03
       H  1.11331e-04  1.47417e-03 -1.68805e-03
       O  5.37132e-04  5.96865e-04  1.27285e-03
       H -6.13104e-03  2.16258e-03 -3.60297e-04
       H  8.90026e-04 -7.96998e-04  7.24992e-04
192
# CELL(abcABC):   16.99620    29.43815    27.67315    90.00000    90.00000    90.00000  Step:          20  Bead:      30 velocities{atomic_unit}  cell{atomic_unit}
       O -2.15070e-04 -1.01382e-03 -3.50590e-04
       H -4.64166e-03  7.46203e-04  3.67009e-03
       H  2.31076e-04  5.82713e-04  1.16009e-03
       O  2.11615e-03 -7.20203e-05  1.53891e-03
       H  1.81417e-03  5.38492e-03  1.90689e-03
       H  2.15988e-03  7.66832e-03 -3.85068e-03
       O  1.42652e-04  1.62263e-03 -4.86550e-04
       H -4.99423e-03 -4.40992e-03 -4.82415e-04
       H -6.91951e-03  2.74546e-03  9.29759e-03
       O  1.84757e-04  3.38946e-04 -1.88225e-03
       H  2.79104e-03 -1.26898e-04 -3.68614e-03
       H  4.28748e-03  3.99214e-03 -1.90393e-04
       O  1.00530e-03  6.58135e-04 -3.17776e-04
       H -3.28072e-03 -4.58134e-04  5.47242e-04
       H -2.81406e-03  5.68527e-03 -2.56795e-03
       O -8.13663e-05  1.36755e-03  7.55550e-04
       H  9.05925e-04  3.56766e-03  9.65851e-04
       H  4.18075e-04  5.99849e-04 -2.61971e-03
       O  1.02174e-03 -2.26727e-03 -1.32842e-03
       H -3.96023e-03  2.23769e-03 -5.44231e-03
       H -3.57382e-03 -9.69676e-04  6.96476e-03
       O -4.21128e-05  8.47220e-04 -1.21270e-03
       H -4.65178e-04  6.41562e-04  1.22848e-03
       H  4.16717e-03  3.04829e-03 -3.20640e-03
       O -1.55112e-04 -8.11985e-04  8.22182e-04
       H  3.74448e-03  5.90955e-03 -2.63609e-03
       H -6.91365e-03 -4.25478e-04 -4.87554e-03
       O -1.22739e-03 -1.77817e-03  1.27444e-03
       H  3.47422e-03 -2.01833e-03  4.92051e-03
       H  5.18578e-03 -9.90758e-05 -6.05744e-04
       O  8.79873e-04  4.89918e-04  8.71701e-04
       H  3.01188e-03  7.95689e-04  4.38007e-03
       H  9.72050e-04  1.82206e-04 -1.71061e-03
       O -3.71940e-04  7.43589e-04 -3.71088e-04
       H -5.23555e-03  7.41612e-03 -7.41455e-03
       H  4.88911e-03 -3.04934e-03 -2.06911e-04
       O  4.50822e-04  7.22774e-04 -5.96866e-04
       H  3.74417e-04  2.05696e-03 -9.80681e-04
       H  3.18274e-04  5.88352e-03 -9.34574e-04
       O -9.44058e-04  4.39392e-04  6.22081e-04
       H -8.89245e-05 -1.11205e-03 -1.93125e-04
       H  3.36113e-03  6.80635e-03  6.67716e-03
       O  3.46364e-04  1.08874e-03 -9.64354e-04
       H  2.16228e-03 -3.25779e-04 -2.48991e-03
       H  4.49218e-03 -2.09795e-03 -2.28729e-03
       O  3.48819e-04 -7.72136e-04 -6.00028e-04
       H -1.61911e-03  5.23916e-03  1.20022e-03
       H  2.40673e-03  6.91673e-03  2.91594e-03
       O -1.88252e-04 -5.69821e-04 -1.26496e-03
       H -5.55929e-04  4.91952e-03  3.51130e-03
       H -5.31045e-05 -1.22593e-03 -2.22080e-03
       O -7.63304e-05 -3.35524e-04  1.42142e-04
       H  7.90745e-03  2.12406e-03 -3.98935e-03
       H  5.79762e-03  3.44263e-03 -2.81333e-03
       O  1.72485e-03 -8.33447e-04 -1.07870e-03
       H -8.92709e-03 -6.48980e-03 -3.81123e-03
       H  4.25831e-03  1.47874e-03 -4.37570e-03
       O  1.29621e-03  5.74445e-04 -7.79462e-04
       H -3.14623e-03  1.48746e-03  1.51673e-03
       H  2.41257e-03 -8.44094e-03 -1.14299e-03
       O -5.72866e-04  4.44977e-05  8.70369e-04
       H  1.47498e-03  3.21890e-03 -1.33008e-03
       H  2.40149e-03 -2.91787e-03 -1.32423e-03
       O -8.18187e-04 -1.13644e-03  2.32668e-04
       H -1.78048e-03 -2.49766e-03  3.25460e-03
       H -3.52905e-03  1.83442e-03 -1.90556e-03
       O -1.23089e-03  7.34998e-04 -1.79669e-04
       H -1.04955e-03 -1.97974e-03 -7.55260e-03
       H  6.89274e-03  5.02749e-04 -2.87419e-03
       O -2.72287e-04  6.50951e-04 -8.00636e-04
       H -2.56861e-03  3.28687e-04  5.45271e-03
       H  1.79375e-03  1.30866e-03  6.70951e-04
       O  1.12110e-03  9.44372e-04 -3.69828e-04
       H  7.26313e-04 -1.57369e-03  1.62175e-03
       H -3.47302e-03 -6.56003e-03  2.42201e-04
       O -1.34921e-03 -9.45152e-04 -7.14114e-04
       H  8.09951e-04 -4.57380e-04  3.15149e-03
       H  2.65651e-03 -2.18824e-03 -3.93581e-03
       O -4.53003e-04 -3.69040e-04 -3.75454e-04
       H  3.14170e-04  3.38744e-03 -5.29914e-03
       H -1.57591e-03  5.83170e-04 -3.27150e-04
       O -1.40808e-03 -1.92746e-04 -1.17663e-03
       H  1.93008e-03 -1.06330e-03  5.17321e-03
       H -6.42604e-04  3.23271e-03 -3.53869e-03
       O  9.80050e-04  5.31097e-04 -8.10506e-04
       H  3.36310e-03  6.83795e-04 -2.60265e-04
       H -5.82438e-03  1.48630e-03  2.33266e-04
       O -4.76481e-05 -8.47323e-04 -1.81823e-05
       H -2.47046e-03 -1.62820e-03  5.76945e-03
       H  3.49885e-03 -3.47267e-03 -5.09168e-03
       O  1.13839e-03  2.24863e-03  1.02956e-03
       H -2.29584e-03  2.51316e-03  4.83927e-04
       H  3.73567e-03 -2.48234e-03  2.48095e-03
       O  5.00544e-04  2.11829e-04  1.18077e-03
       H -6.36791e-03  2.19460e-03  2.90954e-03
       H  1.47919e-03  4.36041e-03  2.84407e-03
       O -3.26602e-04  7.23572e-04 -1.03247e-04
       H -9.64465e-04 -3.91977e-03 -3.40608e-03
       H  1.82569e-03 -6.28707e-04 -4.91092e-03
       O -3.43005e-04  7.11691e-04  8.02786e-04
       H  6.64779e-04  6.14427e-04 -4.61771e-04
       H -3.95964e-03 -7.18505e-04 -3.61151e-03
       O -4.90549e-05 -7.27472e-04 -5.85046e-04
       H  7.42306e-04  3.28752e-03  2.51385e-03
       H  6.99584e-04 -1.45510e-03 -1.53894e-03
       O  7.47136e-04  7.75289e-04 -6.51049e-06
       H  2.65015e-03 -4.33231e-03  1.06313e-03
       H -3.38978e-03 -4.12173e-03  2.07305e-03
       O  3.72795e-04  3.28138e-04  5.54379e-04
       H  4.41581e-03 -2.12645e-03  1.60312e-03
       H -8.30445e-04 -2.27444e-03  4.56126e-04
       O -1.00952e-03 -1.43810e-03 -6.67214e-04
       H  1.88281e-03  6.75346e-03  3.73074e-03
       H -2.08360e-03  6.48352e-03  7.35258e-03
       O  5.25519e-04 -4.26408e-04 -8.17374e-05
       H -4.83974e-03 -1.91963e-03  4.58114e-03
       H  2.59087e-03  4.97991e-03  2.08768e-03
       O  1.28288e-03 -2.21600e-03 -1.33146e-03
       H -8.67018e-05  1.59332e-03  1.69183e-03
       H  2.19851e-03 -7.16530e-03  1.98047e-03
       O -1.71951e-05  5.30075e-04  2.02780e-03
       H -6.15517e-03  1.46503e-03  1.99895e-03
       H -3.40158e-03  2.89111e-04 -5.89399e-03
       O  3.66818e-04 -7.65923e-04  6.08639e-04
       H  1.18176e-03  3.73626e-03 -8.60231e-04
       H -4.02084e-03 -3.47197e-03  4.80433e-03
       O -3.67772e-04  8.16485e-04  9.69664e-04
       H  3.49577e-03 -2.54677e-04 -4.30056e-03
       H  3.77579e-03  8.88216e-04  7.91689e-04
       O  2.24386e-04 -5.29384e-04 -7.82967e-04
       H -2.83200e-04  4.87372e-03  3.63442e-03
       H  5.89792e-03 -1.57172e-03  1.94607e-03
       O -1.49321e-03 -1.71149e-03  5.81321e-05
       H -2.24245e-03  8.89325e-04 -3.75639e-03
       H  9.27819e-03  3.96465e-04 -6.39069e-03
       O -1.02230e-03  5.94899e-05  1.68321e-03
       H -3.58463e-03  2.95499e-03  2.47061e-04
       H  5.92177e-03 -2.10441e-03 -6.81427e-03
       O  1.21692e-04  2.32756e-04  9.32669e-04
       H -1.31074e-03 -1.43915e-03  4.34860e-03
       H  1.04146e-03  4.82947e-03  8.70609e-04
       O  1.76006e-04 -6.58710e-05  3.54550e-04
       H  3.06843e-03  4.63045e-03  5.22934e-03
       H -8.39015e-04  3.27805e-03 -1.94836e-03
       O -1.65933e-03  8.02730e-04  9.39282e-04
       H  2.82385e-03 -3.33363e-03 -2.55948e-04
       H  4.81335e-03 -9.72342e-03 -5.20491e-03
       O -1.58124e-03  6.80233e-04  1.44897e-03
       H  3.19615e-03 -2.69991e-03  2.39134e-03
       H  9.00146e-03  4.56647e-03 -1.12275e-04
       O  7.54965e-04  9.54601e-04  1.45715e-03
       H -2.25383e-03  4.49981e-03  2.66743e-03
       H  4.93726e-04 -3.49773e-03 -5.49524e-03
       O -4.82728e-04 -1.69549e-03 -1.84716e-04
       H -1.11565e-04 -3.64846e-03  2.37600e-03
       H -2.99254e-03  5.53129e-03 -3.25429e-03
       O -1.83797e-03 -3.51277e-04  2.55234e-03
       H -3.17585e-03  3.64978e-03 -1.44275e-04
       H  5.15587e-03 -3.84614e-03 -1.51387e-03
       O  3.12873e-05  8.78525e-05 -7.20444e-04
       H  3.77656e-03 -2.26650e-03  2.41047e-03
       H -1.68338e-03 -2.85083e-03 -4.92182e-03
       O  1.59606e-04  8.01498e-04  3.59622e-04
       H -1.04749e-02  6.17443e-03 -5.88004e-03
       H  4.54107e-03 -7.33646e-03  1.67892e-03
       O -3.19938e-04  1.23386e-03  7.25086e-04
       H -2.89638e-03  4.27939e-03 -1.89447e-04
       H  8.73080e-04  2.58378e-03  1.38556e-03
       O  1.49083e-03 -5.59339e-04  2.39660e-04
       H -9.90971e-03 -1.87458e-03  1.09799e-03
       H -6.86248e-03  2.66929e-03  3.39842e-03
       O -5.30098e-04 -2.90021e-04  5.93019e-04
       H  8.11666e-03  2.63308e-03 -2.17343e-03
       H  5.96204e-04  5.86456e-03  3.65677e-03
       O -6.71611e-04 -1.16261e-03  6.58145e-04
       H  8.05126e-04 -3.75818e-03  6.39992e-03
       H -1.21837e-03 -3.93570e-03 -1.18975e-04
       O  8.03391e-04  1.87625e-04  2.95491e-04
       H -5.91201e-04  2.15405e-03  3.79636e-03
       H -1.63397e-03  2.82572e-04 -2.75629e-05
       O -9.55616e-04 -1.37752e-03  8.34242e-04
       H  2.65969e-03 -3.53645e-03  1.02906e-03
       H -6.55993e-03  3.30761e-03 -9.73163e-04
       O -2.95506e-05 -7.20821e-04 -5.91625e-04
       H -1.96579e-03  2.31340e-04  3.96761e-03
       H -3.03607e-03  4.70956e-03  6.52432e-04
       O  3.08266e-04  1.44302e-03  1.14599e-03
       H -3.98381e-03 -6.45872e-03  3.75072e-03
       H  2.41781e-03  3.40049e-04  2.90999e-03
       O  7.74847e-04  5.82760e-04 -1.64873e-03
       H -5.45235e-03  8.34569e-03 -4.02632e-03
       H -2.18019e-03 -3.41005e-04 -1.09225e-03
192
# CELL(abcABC):   16.99620    29.43815    27.67315    90.00000    90.00000    90.00000  Step:          30  Bead:      30 velocities{atomic_unit}  cell{atomic_unit}
       O -1.32707e-03  2.53434e-04 -1.01624e-03
       H -9.08860e-04  1.92078e-03 -3.63391e-03
       H -1.16517e-03  2.94616e-03 -1.06195e-03
       O  4.74010e-04 -2.84464e-04  6.07301e-04
       H  9.77788e-04 -6.56882e-03  2.33738e-03
       H  5.68783e-03  3.77975e-03 -3.75767e-04
       O -1.47696e-04  9.88442e-04  5.39170e-05
       H  5.06917e-03  2.91874e-03  2.14756e-03
       H -9.75618e-07 -6.65160e-04 -9.21511e-03
       O -1.87360e-03  7.70500e-04  1.97440e-04
       H -2.72261e-03  1.47560e-03 -5.68773e-03
       H  1.01926e-03 -5.22281e-03 -4.39761e-03
       O -1.72352e-03  7.13229e-04  1.46455e-03
       H  1.79354e-03 -1.45028e-04  1.36667e-03
       H  1.63200e-03  3.67393e-03 -3.89245e-03
       O -5.21993e-04  5.20617e-04 -7.31119e-04
       H -3.76147e-03  1.03918e-03 -8.02330e-04
       H  1.78773e-03  3.94445e-04 -3.26968e-03
       O -8.53704e-04 -4.24988e-04  9.75479e-05
       H -3.91660e-03  2.37486e-03  5.93348e-03
       H  1.76623e-03 -9.36732e-04 -7.92323e-04
       O -5.16832e-04 -1.65141e-04 -6.00536e-04
       H  3.55625e-03  8.18024e-03  4.94354e-03
       H  2.08597e-03 -6.23087e-03 -1.16220e-03
       O -9.66669e-04  5.45038e-04  6.41031e-04
       H  1.05494e-03  4.62488e-03  1.57509e-03
       H -1.19413e-03  1.06404e-03 -7.99194e-03
       O -4.01357e-04  7.42971e-04  1.13506e-03
       H  1.72858e-03 -2.82894e-04  7.14986e-03
       H  3.53160e-03  2.99564e-03 -1.33711e-03
       O  1.48343e-03  1.01238e-03 -4.95169e-04
       H  1.12069e-03 -5.73828e-04  8.17676e-04
       H  2.21205e-03  6.25642e-03 -2.02722e-03
       O  7.43662e-04  8.37461e-04  1.46356e-03
       H -6.35294e-03 -1.87655e-05  7.57379e-04