192
# CELL(abcABC):   16.99620    29.43815    27.67315    90.00000    90.00000    90.00000  Step:           0  Bead:       9 positions{atomic_unit}  cell{atomic_unit}
       O -8.22215e+00 -9.94239e+00 -1.31733e+01
       H  7.30664e+00 -1.09711e+01 -1.36322e+01
       H -6.70615e+00 -1.09482e+01 -1.35006e+01
       O -3.97298e+00 -2.58228e+00 -1.31734e+01
       H -5.44033e+00 -3.61131e+00 -1.36317e+01
       H -2.45697e+00 -3.58820e+00 -1.35005e+01
       O -3.95756e+00 -1.25543e+01 -7.82386e-01
       H -3.95604e+00 -1.43515e+01 -2.29143e-01
       H -4.14759e+00 -1.25671e+01 -2.59983e+00
       O -8.20667e+00 -5.19495e+00 -7.82227e-01
       H -8.20527e+00 -6.99211e+00 -2.28860e-01
       H -8.39642e+00 -5.20788e+00 -2.59970e+00
       O -4.52495e+00 -1.21366e+01 -6.25523e+00
       H -6.04104e+00 -1.11308e+01 -6.58223e+00
       H -3.05766e+00 -1.11077e+01 -6.71383e+00
       O  8.22247e+00 -4.77716e+00 -6.25561e+00
       H  6.70639e+00 -3.77128e+00 -6.58235e+00
       H -7.30644e+00 -3.74813e+00 -6.71411e+00
       O  8.20650e+00 -9.52435e+00 -7.70064e+00
       H  8.39647e+00 -9.51190e+00 -9.51809e+00
       H  8.20529e+00 -7.72704e+00 -7.14768e+00
       O -4.54027e+00 -2.16431e+00 -7.70075e+00
       H -4.35006e+00 -2.15153e+00 -9.51816e+00
       H -4.54166e+00 -3.67089e-01 -7.14744e+00
       O -8.22211e+00 -9.94193e+00  6.63469e-01
       H  7.30672e+00 -1.09707e+01  2.04633e-01
       H -6.70609e+00 -1.09478e+01  3.36365e-01
       O -3.97290e+00 -2.58257e+00  6.63081e-01
       H -5.44032e+00 -3.61148e+00  2.04655e-01
       H -2.45688e+00 -3.58848e+00  3.35971e-01
       O -3.95760e+00 -1.25545e+01  1.30538e+01
       H -3.95614e+00 -1.43517e+01  1.36071e+01
       H -4.14757e+00 -1.25673e+01  1.12363e+01
       O -8.20656e+00 -5.19529e+00  1.30545e+01
       H -8.20517e+00 -6.99250e+00  1.36078e+01
       H -8.39634e+00 -5.20824e+00  1.12370e+01
       O -4.52490e+00 -1.21367e+01  7.58138e+00
       H -6.04102e+00 -1.11309e+01  7.25435e+00
       H -3.05757e+00 -1.11078e+01  7.12272e+00
       O  8.22232e+00 -4.77760e+00  7.58065e+00
       H  6.70627e+00 -3.77169e+00  7.25392e+00
       H -7.30657e+00 -3.74862e+00  7.12211e+00
       O  8.20656e+00 -9.52478e+00  6.13597e+00
       H  8.39651e+00 -9.51229e+00  4.31849e+00
       H  8.20527e+00 -7.72747e+00  6.68889e+00
       O -4.54025e+00 -2.16471e+00  6.13560e+00
       H -4.34999e+00 -2.15183e+00  4.31818e+00
       H -4.54168e+00 -3.67533e-01  6.68897e+00
       O -8.22212e+00  4.77724e+00 -1.31733e+01
       H  7.30671e+00  3.74833e+00 -1.36320e+01
       H -6.70607e+00  3.77135e+00 -1.35002e+01
       O -3.97288e+00  1.21369e+01 -1.31734e+01
       H -5.44030e+00  1.11079e+01 -1.36317e+01
       H -2.45689e+00  1.11310e+01 -1.35006e+01
       O -3.95757e+00  2.16435e+00 -7.82368e-01
       H -3.95607e+00  3.67109e-01 -2.29207e-01
       H -4.14756e+00  2.15166e+00 -2.59983e+00
       O -8.20667e+00  9.52420e+00 -7.81868e-01
       H -8.20527e+00  7.72699e+00 -2.28645e-01
       H -8.39652e+00  9.51128e+00 -2.59932e+00
       O -4.52494e+00  2.58246e+00 -6.25501e+00
       H -6.04100e+00  3.58821e+00 -6.58223e+00
       H -3.05758e+00  3.61139e+00 -6.71360e+00
       O  8.22236e+00  9.94146e+00 -6.25587e+00
       H  6.70631e+00  1.09474e+01 -6.58279e+00
       H -7.30653e+00  1.09705e+01 -6.71435e+00
       O  8.20665e+00  5.19438e+00 -7.70097e+00
       H  8.39659e+00  5.20693e+00 -9.51844e+00
       H  8.20533e+00  6.99167e+00 -7.14797e+00
       O -4.54026e+00  1.25545e+01 -7.70081e+00
       H -4.34992e+00  1.25674e+01 -9.51823e+00
       H -4.54169e+00  1.43517e+01 -7.14749e+00
       O -8.22210e+00  4.77691e+00  6.62996e-01
       H  7.30665e+00  3.74808e+00  2.04431e-01
       H -6.70613e+00  3.77091e+00  3.36028e-01
       O -3.97279e+00  1.21369e+01  6.63306e-01
       H -5.44019e+00  1.11079e+01  2.05006e-01
       H -2.45681e+00  1.11309e+01  3.36133e-01
       O -3.95757e+00  2.16479e+00  1.30545e+01
       H -3.95616e+00  3.67575e-01  1.36077e+01
       H -4.14769e+00  2.15200e+00  1.12370e+01
       O -8.20659e+00  9.52434e+00  1.30546e+01
       H -8.20522e+00  7.72713e+00  1.36079e+01
       H -8.39644e+00  9.51145e+00  1.12371e+01
       O -4.52499e+00  2.58228e+00  7.58148e+00
       H -6.04100e+00  3.58814e+00  7.25437e+00
       H -3.05766e+00  3.61126e+00  7.12297e+00
       O  8.22229e+00  9.94203e+00  7.58108e+00
       H  6.70627e+00  1.09480e+01  7.25419e+00
       H -7.30655e+00  1.09710e+01  7.12260e+00
       O  8.20668e+00  5.19493e+00  6.13567e+00
       H  8.39670e+00  5.20749e+00  4.31823e+00
       H  8.20535e+00  6.99219e+00  6.68874e+00
       O -4.54018e+00  1.25546e+01  6.13603e+00
       H -4.34989e+00  1.25674e+01  4.31861e+00
       H -4.54161e+00  1.43518e+01  6.68925e+00
       O  2.75877e-01 -9.94198e+00 -1.31737e+01
       H -1.19147e+00 -1.09709e+01 -1.36323e+01
       H  1.79191e+00 -1.09478e+01 -1.35009e+01
       O  4.52479e+00 -2.58220e+00 -1.31736e+01
       H  3.05750e+00 -3.61120e+00 -1.36322e+01
       H  6.04084e+00 -3.58815e+00 -1.35003e+01
       O  4.54038e+00 -1.25538e+01 -7.82378e-01
       H  4.54166e+00 -1.43510e+01 -2.29173e-01
       H  4.35042e+00 -1.25666e+01 -2.59983e+00
       O  2.91382e-01 -5.19489e+00 -7.82498e-01
       H  2.92775e-01 -6.99208e+00 -2.29179e-01
       H  1.01240e-01 -5.20770e+00 -2.59994e+00
       O  3.97307e+00 -1.21369e+01 -6.25482e+00
       H  2.45707e+00 -1.11310e+01 -6.58187e+00
       H  5.44043e+00 -1.11080e+01 -6.71350e+00
       O -2.76167e-01 -4.77714e+00 -6.25484e+00
       H -1.79215e+00 -3.77120e+00 -6.58193e+00
       H  1.19122e+00 -3.74822e+00 -6.71327e+00
       O -2.91294e-01 -9.52406e+00 -7.70061e+00
       H -1.01153e-01 -9.51128e+00 -9.51804e+00
       H -2.92737e-01 -7.72684e+00 -7.14734e+00
       O  3.95740e+00 -2.16468e+00 -7.70029e+00
       H  4.14711e+00 -2.15178e+00 -9.51779e+00
       H  3.95613e+00 -3.67477e-01 -7.14700e+00
       O  2.75838e-01 -9.94166e+00  6.63265e-01
       H -1.19143e+00 -1.09706e+01  2.04532e-01
       H  1.79197e+00 -1.09474e+01  3.36068e-01
       O  4.52471e+00 -2.58218e+00  6.62891e-01
       H  3.05743e+00 -3.61117e+00  2.04240e-01
       H  6.04080e+00 -3.58806e+00  3.36089e-01
       O  4.54037e+00 -1.25543e+01  1.30539e+01
       H  4.54173e+00 -1.43516e+01  1.36070e+01
       H  4.35050e+00 -1.25670e+01  1.12364e+01
       O  2.91297e-01 -5.19502e+00  1.30541e+01
       H  2.92732e-01 -6.99225e+00  1.36074e+01
       H  1.01206e-01 -5.20786e+00  1.12367e+01
       O  3.97310e+00 -1.21368e+01  7.58177e+00
       H  2.45707e+00 -1.11309e+01  7.25464e+00
       H  5.44051e+00 -1.11080e+01  7.12302e+00
       O -2.76100e-01 -4.77767e+00  7.58136e+00
       H -1.79210e+00 -3.77177e+00  7.25428e+00
       H  1.19125e+00 -3.74871e+00  7.12290e+00
       O -2.91340e-01 -9.52458e+00  6.13593e+00
       H -1.01282e-01 -9.51181e+00  4.31852e+00
       H -2.92762e-01 -7.72734e+00  6.68916e+00
       O  3.95728e+00 -2.16475e+00  6.13602e+00
       H  4.14704e+00 -2.15175e+00  4.31853e+00
       H  3.95603e+00 -3.67615e-01  6.68942e+00
       O  2.75872e-01  4.77775e+00 -1.31735e+01
       H -1.19145e+00  3.74868e+00 -1.36320e+01
       H  1.79192e+00  3.77189e+00 -1.35005e+01
       O  4.52473e+00  1.21369e+01 -1.31737e+01
       H  3.05744e+00  1.11080e+01 -1.36325e+01
       H  6.04082e+00  1.11311e+01 -1.35004e+01
       O  4.54033e+00  2.16480e+00 -7.82502e-01
       H  4.54166e+00  3.67553e-01 -2.29384e-01
       H  4.35052e+00  2.15214e+00 -2.60000e+00
       O  2.91442e-01  9.52423e+00 -7.82681e-01
       H  2.92837e-01  7.72701e+00 -2.29452e-01
       H  1.01299e-01  9.51146e+00 -2.60013e+00
       O  3.97319e+00  2.58230e+00 -6.25496e+00
       H  2.45717e+00  3.58819e+00 -6.58198e+00
       H  5.44056e+00  3.61109e+00 -6.71379e+00
       O -2.76125e-01  9.94167e+00 -6.25515e+00
       H -1.79212e+00  1.09476e+01 -6.58222e+00
       H  1.19126e+00  1.09706e+01 -6.71377e+00
       O -2.91369e-01  5.19475e+00 -7.70046e+00
       H -1.01380e-01  5.20765e+00 -9.51793e+00
       H -2.92793e-01  6.99195e+00 -7.14718e+00
       O  3.95737e+00  1.25543e+01 -7.70076e+00
       H  4.14703e+00  1.25673e+01 -9.51824e+00
       H  3.95606e+00  1.43514e+01 -7.14726e+00
       O  2.75794e-01  4.77734e+00  6.62959e-01
       H -1.19152e+00  3.74832e+00  2.04499e-01
       H  1.79186e+00  3.77147e+00  3.35887e-01
       O  4.52464e+00  1.21373e+01  6.62988e-01
       H  3.05745e+00  1.11082e+01  2.04218e-01
       H  6.04076e+00  1.11314e+01  3.36450e-01
       O  4.54041e+00  2.16499e+00  1.30543e+01
       H  4.54178e+00  3.67749e-01  1.36074e+01
       H  4.35054e+00  2.15228e+00  1.12368e+01
       O  2.91308e-01  9.52457e+00  1.30538e+01
       H  2.92715e-01  7.72735e+00  1.36071e+01
       H  1.01225e-01  9.51181e+00  1.12363e+01
       O  3.97315e+00  2.58235e+00  7.58152e+00
       H  2.45713e+00  3.58829e+00  7.25455e+00
       H  5.44048e+00  3.61122e+00  7.12279e+00
       O -2.76008e-01  9.94202e+00  7.58171e+00
       H -1.79205e+00  1.09479e+01  7.25468e+00
       H  1.19134e+00  1.09710e+01  7.12317e+00
       O -2.91416e-01  5.19510e+00  6.13606e+00
       H -1.01371e-01  5.20795e+00  4.31863e+00
       H -2.92777e-01  6.99228e+00  6.68938e+00
       O  3.95729e+00  1.25546e+01  6.13612e+00
       H  4.14688e+00  1.25676e+01  4.31864e+00
       H  3.95603e+00  1.43518e+01  6.68952e+00
192
# CELL(abcABC):   16.99620    29.43815    27.67315    90.00000    90.00000    90.00000  Step:          10  Bead:       9 positions{atomic_unit}  cell{atomic_unit}
       O -8.19609e+00 -9.93925e+00 -1.31648e+01
       H  7.19350e+00 -1.09811e+01 -1.36380e+01
       H -6.58740e+00 -1.09310e+01 -1.37478e+01
       O -3.97793e+00 -2.55761e+00 -1.31325e+01
       H -5.50903e+00 -3.88295e+00 -1.37266e+01
       H -2.74154e+00 -3.48091e+00 -1.37089e+01
       O -3.99135e+00 -1.25709e+01 -8.18991e-01
       H -3.90194e+00 -1.43365e+01 -2.24808e-01
       H -4.42363e+00 -1.24302e+01 -2.45970e+00
       O -8.19025e+00 -5.16791e+00 -7.72381e-01
       H -8.13455e+00 -7.06083e+00 -5.14672e-01
       H -8.72393e+00 -5.28394e+00 -2.69789e+00
       O -4.47408e+00 -1.21489e+01 -6.25953e+00
       H -6.06955e+00 -1.10744e+01 -6.47608e+00
       H -2.82644e+00 -1.11715e+01 -6.82819e+00
       O  8.28006e+00 -4.78482e+00 -6.34844e+00
       H  7.01844e+00 -3.76688e+00 -6.55362e+00
       H -7.30915e+00 -3.61926e+00 -6.64012e+00
       O  8.21444e+00 -9.48997e+00 -7.64706e+00
       H  8.56828e+00 -9.70638e+00 -9.69630e+00
       H  8.12316e+00 -7.81093e+00 -7.08873e+00
       O -4.56159e+00 -2.21377e+00 -7.65201e+00
       H -4.22718e+00 -2.13951e+00 -9.74939e+00
       H -4.57153e+00 -2.26055e-01 -7.31126e+00
       O -8.24390e+00 -9.91341e+00  6.35647e-01
       H  7.23041e+00 -1.08955e+01  1.09724e-01
       H -6.83473e+00 -1.07601e+01  3.01673e-02
       O -3.95156e+00 -2.58300e+00  7.22319e-01
       H -5.43618e+00 -3.73355e+00  4.96925e-01
       H -2.44516e+00 -3.47376e+00  4.69582e-01
       O -4.00777e+00 -1.24566e+01  1.30426e+01
       H -4.00744e+00 -1.45156e+01  1.33243e+01
       H -4.09514e+00 -1.25126e+01  1.10941e+01
       O -8.23431e+00 -5.16832e+00  1.29708e+01
       H -7.86451e+00 -7.05927e+00  1.33303e+01
       H -8.20876e+00 -5.19014e+00  1.12173e+01
       O -4.52216e+00 -1.21322e+01  7.64707e+00
       H -5.92316e+00 -1.10969e+01  7.24651e+00
       H -2.94295e+00 -1.10607e+01  7.31731e+00
       O  8.22211e+00 -4.75182e+00  7.52204e+00
       H  6.76559e+00 -3.79472e+00  7.30186e+00
       H -7.39538e+00 -3.67498e+00  7.17243e+00
       O  8.15412e+00 -9.46330e+00  6.11767e+00
       H  8.32167e+00 -9.67350e+00  4.39289e+00
       H  7.86020e+00 -7.67926e+00  6.86159e+00
       O -4.59909e+00 -2.08440e+00  6.09958e+00
       H -4.46022e+00 -2.11030e+00  4.35069e+00
       H -4.49671e+00 -3.22226e-01  6.88516e+00
       O -8.26124e+00  4.77095e+00 -1.32166e+01
       H  7.42293e+00  3.76730e+00 -1.36380e+01
       H -6.62502e+00  3.82216e+00 -1.34446e+01
       O -4.01564e+00  1.21888e+01 -1.32200e+01
       H -5.31969e+00  1.14814e+01 -1.39119e+01
       H -2.25325e+00  1.11334e+01 -1.34578e+01
       O -3.97972e+00  2.24767e+00 -8.05189e-01
       H -3.98327e+00  5.40085e-01 -4.46953e-02
       H -4.28591e+00  2.34379e+00 -2.78586e+00
       O -8.23479e+00  9.52180e+00 -7.47939e-01
       H -8.15445e+00  7.71106e+00 -3.53277e-01
       H -8.47038e+00  9.83853e+00 -2.56319e+00
       O -4.48287e+00  2.58005e+00 -6.26959e+00
       H -6.01948e+00  3.40976e+00 -6.54298e+00
       H -3.04720e+00  3.72324e+00 -6.58426e+00
       O  8.21003e+00  9.99679e+00 -6.30148e+00
       H  6.58787e+00  1.10188e+01 -6.29164e+00
       H -7.36424e+00  1.11194e+01 -6.81031e+00
       O  8.20029e+00  5.25168e+00 -7.76917e+00
       H  8.52974e+00  5.13148e+00 -9.63346e+00
       H  8.49419e+00  7.02853e+00 -7.39502e+00
       O -4.63268e+00  1.25014e+01 -7.74924e+00
       H -4.45867e+00  1.24773e+01 -9.48529e+00
       H -4.72718e+00  1.44647e+01 -7.27179e+00
       O -8.21618e+00  4.80770e+00  6.83742e-01
       H  7.40314e+00  3.66197e+00  2.38949e-01
       H -6.65004e+00  3.49859e+00  3.86487e-01
       O -3.94635e+00  1.21284e+01  6.07287e-01
       H -5.37883e+00  1.10824e+01  2.41604e-01
       H -2.48435e+00  1.11002e+01  6.27043e-01
       O -3.97750e+00  2.17858e+00  1.30000e+01
       H -3.86101e+00 -5.21658e-02  1.33298e+01
       H -4.36726e+00  2.24505e+00  1.12090e+01
       O -8.10443e+00  9.52946e+00  1.30311e+01
       H -8.51435e+00  7.65804e+00  1.36274e+01
       H -8.51729e+00  9.55787e+00  1.11279e+01
       O -4.48733e+00  2.58319e+00  7.63923e+00
       H -6.07616e+00  3.56219e+00  7.01392e+00
       H -2.99338e+00  3.52493e+00  7.21414e+00
       O  8.21525e+00  9.94432e+00  7.61295e+00
       H  6.59650e+00  1.08599e+01  7.21471e+00
       H -7.34168e+00  1.09307e+01  7.18821e+00
       O  8.17453e+00  5.19009e+00  6.14916e+00
       H  8.21231e+00  5.46715e+00  4.29208e+00
       H  8.42842e+00  6.61106e+00  6.84588e+00
       O -4.54053e+00  1.25149e+01  6.10790e+00
       H -4.28732e+00  1.29020e+01  4.45245e+00
       H -4.58904e+00  1.42970e+01  6.61193e+00
       O  3.10061e-01 -9.87958e+00 -1.31934e+01
       H -1.36243e+00 -1.08783e+01 -1.35205e+01
       H  1.57804e+00 -1.11951e+01 -1.34907e+01
       O  4.47612e+00 -2.52408e+00 -1.31375e+01
       H  3.10062e+00 -3.75131e+00 -1.32880e+01
       H  6.00273e+00 -3.44888e+00 -1.33525e+01
       O  4.55907e+00 -1.26157e+01 -7.81227e-01
       H  4.60729e+00 -1.46062e+01 -4.33894e-01
       H  4.37717e+00 -1.24532e+01 -2.49242e+00
       O  2.40148e-01 -5.14280e+00 -7.97221e-01
       H  1.89587e-01 -6.83639e+00 -1.45206e-01
       H  4.31047e-01 -5.36977e+00 -2.68656e+00
       O  3.95484e+00 -1.20786e+01 -6.23216e+00
       H  2.23025e+00 -1.12818e+01 -6.71750e+00
       H  5.47485e+00 -1.12336e+01 -7.05463e+00
       O -2.69212e-01 -4.77371e+00 -6.20103e+00
       H -1.93407e+00 -3.81265e+00 -6.74110e+00
       H  1.05461e+00 -3.85596e+00 -6.54996e+00
       O -3.02696e-01 -9.55608e+00 -7.65695e+00
       H -1.50310e-01 -9.79421e+00 -9.47873e+00
       H -1.39619e-01 -7.69608e+00 -6.98604e+00
       O  3.95786e+00 -2.15093e+00 -7.72664e+00
       H  4.25866e+00 -2.49359e+00 -9.58124e+00
       H  3.74434e+00 -3.59200e-01 -7.39218e+00
       O  2.77599e-01 -1.00103e+01  7.04026e-01
       H -1.19269e+00 -1.10169e+01  1.79031e-01
       H  1.86798e+00 -1.07891e+01  3.46960e-01
       O  4.62574e+00 -2.62539e+00  7.07832e-01
       H  3.11353e+00 -3.61020e+00  4.10914e-01
       H  5.98567e+00 -3.57199e+00  3.69348e-01
       O  4.61110e+00 -1.25337e+01  1.31066e+01
       H  4.53242e+00 -1.43714e+01  1.36812e+01
       H  4.36944e+00 -1.25747e+01  1.12790e+01
       O  3.21691e-01 -5.16158e+00  1.31127e+01
       H  2.28750e-01 -7.11582e+00  1.35263e+01
       H -2.46543e-01 -5.39716e+00  1.12917e+01
       O  3.97242e+00 -1.21264e+01  7.55142e+00
       H  2.53277e+00 -1.10023e+01  7.45186e+00
       H  5.33437e+00 -1.11616e+01  7.00220e+00
       O -3.40913e-01 -4.77299e+00  7.61830e+00
       H -1.73797e+00 -3.80111e+00  7.14186e+00
       H  1.28136e+00 -3.80643e+00  7.14179e+00
       O -2.93223e-01 -9.51577e+00  6.14047e+00
       H -2.68062e-01 -9.38924e+00  4.47870e+00
       H -2.74549e-01 -7.66281e+00  6.76177e+00
       O  4.02324e+00 -2.19802e+00  6.06704e+00
       H  4.36288e+00 -1.86918e+00  4.34801e+00
       H  4.15245e+00 -4.21400e-01  6.63821e+00
       O  2.84093e-01  4.80090e+00 -1.31747e+01
       H -1.13024e+00  3.76012e+00 -1.38648e+01
       H  1.80833e+00  3.93232e+00 -1.36847e+01
       O  4.52463e+00  1.20835e+01 -1.31748e+01
       H  3.12003e+00  1.08605e+01 -1.36472e+01
       H  6.03436e+00  1.11574e+01 -1.36917e+01
       O  4.51186e+00  2.21700e+00 -8.19501e-01
       H  4.47761e+00  5.20667e-01  7.97582e-02
       H  4.33750e+00  2.18555e+00 -2.48515e+00
       O  2.92984e-01  9.53363e+00 -7.14357e-01
       H  1.38398e-01  7.62361e+00 -8.87276e-02
       H  1.39943e-01  9.54000e+00 -2.79630e+00
       O  3.98069e+00  2.54609e+00 -6.17704e+00
       H  2.44092e+00  3.70549e+00 -6.58535e+00
       H  5.38173e+00  3.73156e+00 -6.56284e+00
       O -2.54960e-01  9.95976e+00 -6.27565e+00
       H -1.91803e+00  1.08654e+01 -6.82777e+00
       H  1.13091e+00  1.10555e+01 -6.69097e+00
       O -3.22801e-01  5.19633e+00 -7.69845e+00
       H -1.84742e-01  5.25176e+00 -9.44117e+00
       H -2.55730e-01  7.19269e+00 -7.16348e+00
       O  3.93525e+00  1.25361e+01 -7.66092e+00
       H  4.25753e+00  1.28001e+01 -9.64992e+00
       H  4.00784e+00  1.44344e+01 -7.04402e+00
       O  2.48641e-01  4.76348e+00  6.19896e-01
       H -1.42405e+00  3.56328e+00  2.47306e-01
       H  1.73650e+00  3.51251e+00  2.81069e-01
       O  4.47329e+00  1.21749e+01  6.27707e-01
       H  2.78363e+00  1.11474e+01  1.41386e-01
       H  6.10150e+00  1.13689e+01  2.26420e-01
       O  4.60816e+00  2.23903e+00  1.30351e+01
       H  4.64756e+00  7.48889e-01  1.37356e+01
       H  4.30985e+00  2.21370e+00  1.13501e+01
       O  3.05574e-01  9.52545e+00  1.29660e+01
       H  5.50512e-01  7.65412e+00  1.37278e+01
       H  2.06400e-01  9.40958e+00  1.11815e+01
       O  3.94343e+00  2.52096e+00  7.59781e+00
       H  2.50686e+00  3.46386e+00  7.28763e+00
       H  5.41831e+00  3.37107e+00  7.49297e+00
       O -2.72131e-01  9.84036e+00  7.64450e+00
       H -1.86684e+00  1.09894e+01  7.33992e+00
       H  1.29229e+00  1.09037e+01  7.09715e+00
       O -3.35417e-01  5.18250e+00  6.14943e+00
       H -1.16921e-01  5.21066e+00  4.46351e+00
       H -2.81852e-01  7.17932e+00  6.54195e+00
       O  4.00429e+00  1.25422e+01  6.11443e+00
       H  4.11269e+00  1.27702e+01  4.39182e+00
       H  3.72909e+00  1.43621e+01  6.67579e+00
192
# CELL(abcABC):   16.99620    29.43815    27.67315    90.00000    90.00000    90.00000  Step:          20  Bead:       9 positions{atomic_unit}  cell{atomic_unit}
       O -8.18668e+00 -1.00077e+01 -1.31086e+01
       H  7.10237e+00 -1.07900e+01 -1.34545e+01
       H -6.48107e+00 -1.08776e+01 -1.37910e+01
       O -3.94709e+00 -2.52609e+00 -1.31371e+01
       H -5.69533e+00 -3.70140e+00 -1.33714e+01
       H -2.66564e+00 -3.75275e+00 -1.38500e+01
       O -4.06336e+00 -1.25576e+01 -8.58409e-01
       H -3.79019e+00 -1.43991e+01 -1.28475e-01
       H -4.26829e+00 -1.26009e+01 -2.62438e+00
       O -8.23650e+00 -5.10043e+00 -8.47031e-01
       H -8.21293e+00 -7.00769e+00 -4.41584e-01
       H -8.85629e+00 -5.14710e+00 -2.60426e+00
       O -4.41209e+00 -1.22015e+01 -6.27922e+00
       H -5.99703e+00 -1.10864e+01 -6.23277e+00
       H -2.89180e+00 -1.13073e+01 -7.10257e+00
       O  8.32727e+00 -4.81319e+00 -6.35704e+00
       H  6.92238e+00 -3.63390e+00 -6.65629e+00
       H -7.35158e+00 -3.73078e+00 -6.42671e+00
       O  8.23042e+00 -9.52930e+00 -7.64601e+00
       H  8.31359e+00 -9.46785e+00 -9.63880e+00
       H  8.01392e+00 -7.73325e+00 -6.82665e+00
       O -4.56959e+00 -2.18019e+00 -7.68770e+00
       H -4.19865e+00 -2.17636e+00 -9.56781e+00
       H -4.83719e+00 -1.56563e-01 -7.23044e+00
       O -8.27761e+00 -9.88439e+00  6.97963e-01
       H  7.32903e+00 -1.08484e+01 -3.89379e-02
       H -6.70257e+00 -1.09177e+01  1.55198e-01
       O -3.95513e+00 -2.58349e+00  7.04065e-01
       H -5.62669e+00 -3.60511e+00  4.03320e-01
       H -2.21799e+00 -3.83135e+00  5.67329e-01
       O -3.96378e+00 -1.25354e+01  1.30149e+01
       H -4.15498e+00 -1.44432e+01  1.33554e+01
       H -4.10737e+00 -1.25940e+01  1.10433e+01
       O -8.13451e+00 -5.13207e+00  1.29763e+01
       H -7.92377e+00 -7.01713e+00  1.34370e+01
       H -7.98263e+00 -5.34451e+00  1.12441e+01
       O -4.52391e+00 -1.21075e+01  7.68377e+00
       H -6.02868e+00 -1.10570e+01  7.50758e+00
       H -2.69466e+00 -1.08762e+01  7.69464e+00
       O  8.24167e+00 -4.64674e+00  7.53649e+00
       H  6.55161e+00 -3.66128e+00  7.32541e+00
       H -7.23315e+00 -3.61576e+00  7.25228e+00
       O  8.12874e+00 -9.48723e+00  6.11494e+00
       H  8.19670e+00 -9.71938e+00  4.32507e+00
       H  7.68740e+00 -7.70699e+00  7.01608e+00
       O -4.59885e+00 -2.07088e+00  6.14240e+00
       H -4.60430e+00 -2.06614e+00  4.15837e+00
       H -4.51886e+00 -1.81454e-01  6.82302e+00
       O -8.26349e+00  4.76676e+00 -1.32816e+01
       H  7.38453e+00  3.71749e+00 -1.35092e+01
       H -6.68089e+00  3.70080e+00 -1.34249e+01
       O -4.00047e+00  1.21476e+01 -1.32033e+01
       H -5.67848e+00  1.12665e+01 -1.38903e+01
       H -2.39412e+00  1.11482e+01 -1.33976e+01
       O -3.94183e+00  2.17155e+00 -8.21615e-01
       H -4.14914e+00  4.08239e-01 -3.02390e-02
       H -4.31887e+00  2.22895e+00 -2.63354e+00
       O -8.25337e+00  9.52826e+00 -7.13423e-01
       H -8.04060e+00  7.67258e+00 -2.46284e-01
       H -8.25418e+00  9.55580e+00 -2.63892e+00
       O -4.48181e+00  2.61720e+00 -6.27666e+00
       H -6.47023e+00  3.49856e+00 -6.41009e+00
       H -2.69430e+00  3.34427e+00 -6.64889e+00
       O  8.23307e+00  9.96471e+00 -6.24497e+00
       H  6.62452e+00  1.09585e+01 -6.31691e+00
       H -7.56716e+00  1.13148e+01 -6.61732e+00
       O  8.14631e+00  5.26343e+00 -7.76588e+00
       H  8.57617e+00  5.03555e+00 -9.63599e+00
       H  8.78723e+00  7.19536e+00 -7.16758e+00
       O -4.65567e+00  1.24875e+01 -7.78092e+00
       H -4.60986e+00  1.23247e+01 -9.54305e+00
       H -4.86440e+00  1.45800e+01 -7.42404e+00
       O -8.21877e+00  4.74688e+00  6.68877e-01
       H  7.35609e+00  3.57815e+00  1.68270e-01
       H -6.72661e+00  3.48687e+00  5.74049e-01
       O -3.86075e+00  1.20765e+01  5.61386e-01
       H -5.47586e+00  1.08911e+01  2.81700e-01
       H -2.22233e+00  1.09101e+01  7.46437e-01
       O -3.96075e+00  2.07276e+00  1.29575e+01
       H -4.13762e+00 -2.22454e-02  1.31011e+01
       H -4.59447e+00  2.20094e+00  1.10806e+01
       O -8.21915e+00  9.50054e+00  1.30313e+01
       H -8.49856e+00  7.86300e+00  1.38260e+01
       H -8.46265e+00  9.06488e+00  1.10325e+01
       O -4.51242e+00  2.55651e+00  7.65408e+00
       H -6.21228e+00  3.65942e+00  7.05523e+00
       H -2.95180e+00  3.57620e+00  7.12147e+00
       O  8.24601e+00  9.91317e+00  7.62146e+00
       H  6.65769e+00  1.07197e+01  7.24800e+00
       H -7.40402e+00  1.09340e+01  6.98079e+00
       O  8.18387e+00  5.15719e+00  6.08302e+00
       H  8.31196e+00  5.46359e+00  4.31974e+00
       H  8.58961e+00  6.75208e+00  6.96707e+00
       O -4.55266e+00  1.25958e+01  6.13791e+00
       H -4.21559e+00  1.28585e+01  4.32432e+00
       H -4.54020e+00  1.45572e+01  6.82260e+00
       O  2.99865e-01 -9.82190e+00 -1.32112e+01
       H -1.19737e+00 -1.10142e+01 -1.34352e+01
       H  1.69113e+00 -1.12668e+01 -1.35141e+01
       O  4.59252e+00 -2.45043e+00 -1.30728e+01
       H  2.97059e+00 -3.63855e+00 -1.33418e+01
       H  6.02189e+00 -3.63893e+00 -1.30938e+01
       O  4.59092e+00 -1.26280e+01 -7.70194e-01
       H  4.61627e+00 -1.45644e+01 -2.36627e-01
       H  4.35224e+00 -1.25027e+01 -2.52254e+00
       O  2.25146e-01 -5.20021e+00 -7.62226e-01
       H  2.92711e-01 -6.96924e+00  6.25962e-02
       H  1.72332e-01 -5.30038e+00 -2.45520e+00
       O  3.92332e+00 -1.20299e+01 -6.16860e+00
       H  2.25970e+00 -1.11445e+01 -6.74979e+00
       H  5.35464e+00 -1.11811e+01 -7.01499e+00
       O -3.56945e-01 -4.72677e+00 -6.27476e+00
       H -1.96511e+00 -3.94730e+00 -6.54271e+00
       H  1.13063e+00 -3.72759e+00 -6.79379e+00
       O -3.05704e-01 -9.63735e+00 -7.64872e+00
       H -2.75447e-01 -9.81342e+00 -9.49293e+00
       H -2.24952e-01 -7.88108e+00 -6.93922e+00
       O  3.93334e+00 -2.21793e+00 -7.64766e+00
       H  4.32418e+00 -2.37843e+00 -9.30604e+00
       H  3.92197e+00 -3.57145e-01 -7.18507e+00
       O  2.17877e-01 -1.00163e+01  7.13260e-01
       H -1.20533e+00 -1.11861e+01  3.45907e-02
       H  1.86027e+00 -1.09677e+01  2.91333e-01
       O  4.56695e+00 -2.54234e+00  6.89162e-01
       H  3.29163e+00 -3.77343e+00  8.11456e-01
       H  6.10271e+00 -3.67715e+00  4.51147e-01
       O  4.63530e+00 -1.24880e+01  1.31278e+01
       H  4.49820e+00 -1.47611e+01  1.35323e+01
       H  3.89745e+00 -1.26212e+01  1.13311e+01
       O  4.42144e-01 -5.11100e+00  1.30820e+01
       H  1.62030e-01 -7.17636e+00  1.33910e+01
       H -3.86053e-01 -5.28526e+00  1.13302e+01
       O  3.94668e+00 -1.21795e+01  7.50377e+00
       H  2.63191e+00 -1.07484e+01  7.49908e+00
       H  5.47030e+00 -1.10840e+01  6.99994e+00
       O -2.66055e-01 -4.82429e+00  7.64735e+00
       H -1.89742e+00 -3.82875e+00  7.11403e+00
       H  1.40381e+00 -3.73347e+00  7.32251e+00
       O -2.65999e-01 -9.46078e+00  6.11710e+00
       H -3.64249e-01 -9.24245e+00  4.40734e+00
       H -3.83516e-01 -7.60061e+00  6.59871e+00
       O  4.04285e+00 -2.21161e+00  6.08204e+00
       H  4.59571e+00 -1.97995e+00  4.51568e+00
       H  4.11654e+00 -4.25095e-01  6.82883e+00
       O  2.03182e-01  4.77883e+00 -1.31405e+01
       H -1.41676e+00  3.85548e+00 -1.42240e+01
       H  1.70128e+00  3.90787e+00 -1.36643e+01
       O  4.56390e+00  1.20864e+01 -1.31574e+01
       H  3.39178e+00  1.09144e+01 -1.38275e+01
       H  6.06326e+00  1.11501e+01 -1.33327e+01
       O  4.45968e+00  2.22035e+00 -8.23876e-01
       H  4.75774e+00  6.85031e-01  1.20717e-01
       H  4.24226e+00  2.07915e+00 -2.54038e+00
       O  2.56554e-01  9.51558e+00 -6.77023e-01
       H  4.12770e-01  7.88075e+00  1.11452e-03
       H  1.12560e-01  9.47046e+00 -2.47287e+00
       O  3.98373e+00  2.49136e+00 -6.15098e+00
       H  2.52018e+00  3.71769e+00 -6.44318e+00
       H  5.45224e+00  3.66590e+00 -6.45643e+00
       O -1.83758e-01  9.97076e+00 -6.21230e+00
       H -1.85627e+00  1.09481e+01 -6.38840e+00
       H  1.40267e+00  1.11872e+01 -6.65678e+00
       O -3.05739e-01  5.25528e+00 -7.63595e+00
       H -1.69317e-01  5.10154e+00 -9.44707e+00
       H -2.17092e-01  7.12957e+00 -6.96095e+00
       O  3.95140e+00  1.25124e+01 -7.67060e+00
       H  4.15466e+00  1.29880e+01 -9.35648e+00
       H  4.09054e+00  1.43632e+01 -6.92534e+00
       O  3.17134e-01  4.76850e+00  5.94817e-01
       H -1.00171e+00  3.50509e+00  2.25777e-01
       H  1.78160e+00  3.55340e+00  3.10229e-01
       O  4.38357e+00  1.21765e+01  6.47737e-01
       H  2.94692e+00  1.10454e+01  1.53020e-01
       H  6.16660e+00  1.14258e+01  2.08182e-01
       O  4.59951e+00  2.32118e+00  1.30615e+01
       H  4.35330e+00  4.31012e-01  1.35498e+01
       H  4.65280e+00  2.00526e+00  1.11771e+01
       O  3.05785e-01  9.50358e+00  1.29697e+01
       H  4.63734e-01  7.67937e+00  1.37890e+01
       H  3.40317e-01  9.36645e+00  1.11698e+01
       O  3.99462e+00  2.46428e+00  7.66184e+00
       H  2.32357e+00  3.43938e+00  7.17636e+00
       H  5.33084e+00  3.29670e+00  7.10711e+00
       O -2.52086e-01  9.83376e+00  7.69304e+00
       H -1.92642e+00  1.09653e+01  7.62767e+00
       H  1.09393e+00  1.13237e+01  7.12108e+00
       O -2.92970e-01  5.17151e+00  6.05508e+00
       H -1.36875e-01  5.33326e+00  4.15958e+00
       H -1.96279e-01  7.00199e+00  6.61138e+00
       O  4.11044e+00  1.25514e+01  6.14738e+00
       H  3.91217e+00  1.26972e+01  4.53829e+00
       H  3.57747e+00  1.44117e+01  6.69566e+00
192
# CELL(abcABC):   16.99620    29.43815    27.67315    90.00000    90.00000    90.00000  Step:          30  Bead:       9 positions{atomic_unit}  cell{atomic_unit}
       O -8.11417e+00 -1.00370e+01 -1.30128e+01
       H  7.20148e+00 -1.07791e+01 -1.36999e+01
       H -6.60132e+00 -1.10548e+01 -1.37695e+01
       O -3.93894e+00 -2.62137e+00 -1.31134e+01
       H -5.46792e+00 -3.31568e+00 -1.35687e+01
       H -2.41607e+00 -3.46311e+00 -1.37361e+01
       O -4.05198e+00 -1.25758e+01 -8.49588e-01
       H -3.94821e+00 -1.43291e+01 -8.34245e-02
       H -4.37288e+00 -1.28036e+01 -2.63358e+00
       O -8.36766e+00 -5.08920e+00 -7.56612e-01
       H -8.22167e+00 -7.16486e+00 -6.51543e-01
       H -8.92626e+00 -4.95712e+00 -2.49567e+00
       O -4.42239e+00 -1.22338e+01 -6.25634e+00
       H -5.69711e+00 -1.12464e+01 -6.37446e+00
       H -2.97748e+00 -1.15565e+01 -6.87738e+00
       O  8.33357e+00 -4.75080e+00 -6.40442e+00
       H  6.76461e+00 -3.62962e+00 -6.84201e+00
       H -6.97229e+00 -3.96296e+00 -6.56666e+00
       O  8.19495e+00 -9.54476e+00 -7.57461e+00
       H  8.23485e+00 -9.44925e+00 -9.59039e+00
       H  8.17172e+00 -7.73788e+00 -7.02684e+00
       O -4.56817e+00 -2.16614e+00 -7.65733e+00
       H -4.08670e+00 -2.13676e+00 -9.41510e+00
       H -5.10412e+00 -1.71442e-01 -7.29147e+00
       O -8.34046e+00 -9.79073e+00  6.76761e-01
       H  7.43275e+00 -1.10590e+01 -1.49245e-02
       H -6.54475e+00 -1.09757e+01  2.97911e-01
       O -3.90638e+00 -2.59039e+00  7.80099e-01
       H -5.59228e+00 -3.76562e+00  3.56283e-01
       H -2.37006e+00 -4.06188e+00  6.48355e-01
       O -3.94223e+00 -1.25160e+01  1.29889e+01
       H -4.17067e+00 -1.41906e+01  1.34229e+01
       H -4.28233e+00 -1.26589e+01  1.10597e+01
       O -8.18118e+00 -5.10476e+00  1.30251e+01
       H -8.18868e+00 -7.10566e+00  1.35608e+01