ITEM: TIMESTEP
0
ITEM: NUMBER OF ATOMS
24
ITEM: BOX BOUNDS xy xz yz pp pp pp
0.0000000000000000e+00 4.4969999999999999e+00 0.0000000000000000e+00
0.0000000000000000e+00 7.7889999999999997e+00 0.0000000000000000e+00
0.0000000000000000e+00 7.3220000000000001e+00 0.0000000000000000e+00
ITEM: ATOMS id type x y z vx vy vz ix iy iz
1 1 0 2.59633 0.455428 -1.71096 0.915293 4.95797 0 0 0
2 2 3.71478 2.14472 0.138555 0.490664 -20.5012 13.9728 0 0 0
3 2 0.78222 2.14472 0.138555 6.63308 10.2152 10.6576 0 0 0
4 1 2.2485 6.49083 0.455428 -3.24038 3.00598 0.76914 0 0 0
5 2 1.46628 6.03922 0.138555 -25.3233 6.89295 23.62 0 0 0
6 2 3.03072 6.03922 0.138555 -6.89975 8.89531 -3.6556 0 0 0
7 1 2.2485 1.29817 6.86657 -6.97373 0.953939 0.588857 0 0 0
8 2 2.2485 0.394938 7.18345 -7.76317 -6.7491 17.3263 0 0 0
9 2 2.2485 1.29817 5.90937 3.3172 -34.7422 4.67619 0 0 0
10 1 0 5.19267 6.86657 0.0903481 1.34145 -5.04124 0 0 0
11 2 0 4.28944 7.18345 -14.4371 11.1802 -5.21307 0 0 0
12 2 0 5.19267 5.90937 -6.63945 -3.91036 -5.33866 0 0 0
13 1 2.2485 1.29817 4.11643 6.53533 3.51774 -2.97008 0 0 0
14 2 1.46628 1.74978 3.79955 2.71582 -9.49767 -24.5673 0 0 0
15 2 3.03072 1.74978 3.79955 25.8538 -31.8401 -16.0327 0 0 0
16 1 0 5.19267 4.11643 6.59318 -0.897906 -1.50196 0 0 0
17 2 3.71478 5.64428 3.79955 -7.2485 -0.102459 7.36982 0 0 0
18 2 0.78222 5.64428 3.79955 -10.4137 -17.0294 11.8599 0 0 0
19 1 0 2.59633 3.20557 -1.63686 -1.36834 -0.146068 0 0 0
20 2 0 2.59633 2.24837 16.1073 -1.90087 14.0412 0 0 0
21 2 0 3.49956 3.52245 5.17796 -10.2729 25.0807 0 0 0
22 1 2.2485 6.49083 3.20557 0.344079 0.408434 -1.16181 0 0 0
23 2 2.2485 6.49083 2.24837 2.36299 -11.0136 -17.2227 0 0 0
24 2 2.2485 7.39406 3.52245 16.0502 -14.6444 14.9336 0 0 0
ITEM: TIMESTEP
5
ITEM: NUMBER OF ATOMS
24
ITEM: BOX BOUNDS xy xz yz pp pp pp
0.0000000000000000e+00 4.4969999999999999e+00 0.0000000000000000e+00
0.0000000000000000e+00 7.7889999999999997e+00 0.0000000000000000e+00
0.0000000000000000e+00 7.3220000000000001e+00 0.0000000000000000e+00
ITEM: ATOMS id type x y z vx vy vz ix iy iz
1 1 4.49266 2.59965 0.466649 -1.55442 1.89222 3.91498 -1 0 0
2 2 3.70793 2.08219 0.171194 -2.65074 -26.486 11.5306 0 0 0
3 2 0.809337 2.15356 0.164574 13.9135 -3.46863 9.21115 0 0 0
4 1 2.2397 6.50158 0.457771 -3.9688 5.21043 1.02932 0 0 0
5 2 1.40071 6.04413 0.18591 -19.6958 -0.458642 14.7832 0 0 0
6 2 3.03333 6.04419 0.118364 2.74124 -4.54401 -10.1036 0 0 0
7 1 2.23241 1.30278 6.86872 -5.4804 1.61688 1.21835 0 0 0
8 2 2.23301 0.359906 7.23434 -3.72421 -12.6 19.5982 0 0 0
9 2 2.25535 1.20708 5.91012 2.82874 -35.1917 -5.39697 0 0 0
10 1 4.49545 5.19898 6.85489 -1.06445 3.19874 -4.18077 -1 0 0
11 2 4.45871 4.27226 7.18243 -13.1869 -20.2138 3.32788 -1 0 0
12 2 4.47854 5.17667 5.89203 -7.75277 -9.88812 -8.22243 -1 0 0
13 1 2.26473 1.305 4.10989 6.15837 2.4449 -2.37793 0 0 0
14 2 1.46393 1.74097 3.73457 1.12413 -0.336893 -24.569 0 0 0
15 2 3.10168 1.69006 3.75469 23.8908 -16.2896 -18.1538 0 0 0
16 1 0.0142194 5.18781 4.11236 4.25561 -2.98031 -1.61496 0 0 0
17 2 3.69547 5.65576 3.81309 -4.15282 8.33926 3.48238 0 0 0
18 2 0.794381 5.63174 3.81539 21.0222 7.46321 -0.555542 0 0 0
19 1 4.49344 2.59035 3.20683 -1.52831 -3.34161 1.58228 -1 0 0
20 2 0.038309 2.59869 2.25867 14.0679 6.29939 -9.88548 0 0 0
21 2 0.0154661 3.50651 3.59097 5.62138 9.426 25.3782 0 0 0
22 1 2.24927 6.48704 3.20327 0.0935608 -2.91885 -1.03698 0 0 0
23 2 2.25236 6.47472 2.20926 0.370953 -0.282895 -3.43907 0 0 0
24 2 2.2872 7.40047 3.56513 14.6096 16.9275 16.2787 0 0 0
