ITEM: TIMESTEP
0
ITEM: NUMBER OF ATOMS
24
ITEM: BOX BOUNDS xy xz yz pp pp pp
0.0000000000000000e+00 4.4969999999999999e+00 0.0000000000000000e+00
0.0000000000000000e+00 7.7889999999999997e+00 0.0000000000000000e+00
0.0000000000000000e+00 7.3220000000000001e+00 0.0000000000000000e+00
ITEM: ATOMS id type x y z vx vy vz ix iy iz
1 1 0 2.59633 0.455428 0.785606 0.474709 2.4787 0 0 0
2 2 3.71478 2.14472 0.138555 -11.5953 -1.92257 -5.29116 0 0 0
3 2 0.78222 2.14472 0.138555 -0.389077 -11.9765 8.38893 0 0 0
4 1 2.2485 6.49083 0.455428 1.48205 1.78352 -4.81054 0 0 0
5 2 1.46628 6.03922 0.138555 -3.04992 39.3175 -5.64769 0 0 0
6 2 3.03072 6.03922 0.138555 6.87245 -22.1105 -31.6055 0 0 0
7 1 2.2485 1.29817 6.86657 -5.11251 -3.70101 6.10866 0 0 0
8 2 2.2485 0.394938 7.18345 37.1735 3.75928 0.530167 0 0 0
9 2 2.2485 1.29817 5.90937 16.7822 -2.87358 -14.3458 0 0 0
10 1 0 5.19267 6.86657 4.89279 -5.31905 -2.96141 0 0 0
11 2 0 4.28944 7.18345 -14.0828 6.45084 0.688606 0 0 0
12 2 0 5.19267 5.90937 -10.5534 -17.5518 7.39339 0 0 0
13 1 2.2485 1.29817 4.11643 0.277133 4.32124 -0.780823 0 0 0
14 2 1.46628 1.74978 3.79955 14.3652 -8.7124 -0.32541 0 0 0
15 2 3.03072 1.74978 3.79955 -20.0037 12.6519 10.8485 0 0 0
16 1 0 5.19267 4.11643 -2.46123 7.68968 -0.633958 0 0 0
17 2 3.71478 5.64428 3.79955 6.836 19.5928 -1.35532 0 0 0
18 2 0.78222 5.64428 3.79955 -10.0248 -20.4799 2.21261 0 0 0
19 1 0 2.59633 3.20557 -1.1731 -4.41384 -0.652538 0 0 0
20 2 0 2.59633 2.24837 -0.490443 7.68754 -3.33226 0 0 0
21 2 0 3.49956 3.52245 9.22567 -23.2498 12.9951 0 0 0
22 1 2.2485 6.49083 3.20557 -0.22038 -0.969284 1.67313 0 0 0
23 2 2.2485 6.49083 2.24837 2.49216 3.10356 4.34866 0 0 0
24 2 2.2485 7.39406 3.52245 0.721435 18.4409 7.81145 0 0 0
ITEM: TIMESTEP
5
ITEM: NUMBER OF ATOMS
24
ITEM: BOX BOUNDS xy xz yz pp pp pp
0.0000000000000000e+00 4.4969999999999999e+00 0.0000000000000000e+00
0.0000000000000000e+00 7.7889999999999997e+00 0.0000000000000000e+00
0.0000000000000000e+00 7.3220000000000001e+00 0.0000000000000000e+00
ITEM: ATOMS id type x y z vx vy vz ix iy iz
1 1 0.00230311 2.59916 0.461376 0.973815 1.42262 1.80491 0 0 0
2 2 3.68714 2.13071 0.126353 -5.45247 -6.32564 -1.13442 0 0 0
3 2 0.794213 2.10189 0.157423 5.70467 -18.2535 6.30276 0 0 0
4 1 2.25354 6.49857 0.443775 3.10638 3.92781 -4.53469 0 0 0
5 2 1.43459 6.11045 0.121226 -22.3714 18.1525 -6.63508 0 0 0
6 2 3.04151 5.98328 0.0673248 -5.03246 -16.7139 -21.3609 0 0 0
7 1 2.23771 1.29169 6.88052 -3.76982 -1.60231 4.19518 0 0 0
8 2 2.33227 0.366177 7.19524 29.8643 -23.6226 9.22492 0 0 0
9 2 2.28549 1.28549 5.88426 10.7905 -7.99328 3.74881 0 0 0
10 1 0.011621 5.18142 6.86045 4.07669 -3.02383 -1.7932 0 0 0
11 2 4.46522 4.26832 7.19871 -9.89475 -22.1787 10.6944 -1 0 0
12 2 4.47244 5.13953 5.90712 -9.70679 -21.4786 -12.9012 -1 0 0
13 1 2.24795 1.3047 4.11628 -0.557729 0.72483 0.520038 0 0 0
14 2 1.4696 1.75185 3.78358 -11.5406 9.947 -11.2492 0 0 0
15 2 3.01708 1.80679 3.81401 6.73025 27.8623 1.15315 0 0 0
16 1 4.48911 5.20981 4.11444 -3.66906 5.32126 -1.13953 -1 0 0
17 2 3.71879 5.70695 3.78959 -3.46604 28.618 -6.40467 0 0 0
18 2 0.787328 5.621 3.79227 15.7156 3.23543 -8.51101 0 0 0
19 1 4.49439 2.58268 3.20375 -0.70811 -6.10024 -0.459414 -1 0 0
20 2 4.49438 2.61937 2.22912 -1.39814 10.9452 -4.59261 -1 0 0
21 2 0.0207622 3.48642 3.56992 5.53977 9.75344 22.9147 0 0 0
22 1 2.24786 6.4866 3.21054 -0.148201 -1.52396 2.33428 0 0 0
23 2 2.25451 6.50416 2.2475 2.76034 6.67993 -3.40526 0 0 0
24 2 2.25321 7.45161 3.54654 2.80502 14.9247 7.43284 0 0 0
