ITEM: TIMESTEP
0
ITEM: NUMBER OF ATOMS
24
ITEM: BOX BOUNDS xy xz yz pp pp pp
0.0000000000000000e+00 4.4969999999999999e+00 0.0000000000000000e+00
0.0000000000000000e+00 7.7889999999999997e+00 0.0000000000000000e+00
0.0000000000000000e+00 7.3220000000000001e+00 0.0000000000000000e+00
ITEM: ATOMS id type x y z vx vy vz ix iy iz
1 1 0 2.59633 0.455428 4.31536 -1.02835 1.18484 0 0 0
2 2 3.71478 2.14472 0.138555 10.9252 14.5084 7.43887 0 0 0
3 2 0.78222 2.14472 0.138555 -5.51565 -2.09053 -3.27769 0 0 0
4 1 2.2485 6.49083 0.455428 1.62946 5.32465 -2.92845 0 0 0
5 2 1.46628 6.03922 0.138555 -19.3738 5.03142 21.5089 0 0 0
6 2 3.03072 6.03922 0.138555 13.6374 23.7828 -15.3827 0 0 0
7 1 2.2485 1.29817 6.86657 4.93969 -4.7171 -1.32045 0 0 0
8 2 2.2485 0.394938 7.18345 6.32131 1.87832 -15.3493 0 0 0
9 2 2.2485 1.29817 5.90937 5.29389 5.39014 12.7205 0 0 0
10 1 0 5.19267 6.86657 -3.15411 4.14001 -1.4924 0 0 0
11 2 0 4.28944 7.18345 9.47064 -21.0387 -4.87831 0 0 0
12 2 0 5.19267 5.90937 23.4777 8.91021 -11.5623 0 0 0
13 1 2.2485 1.29817 4.11643 -2.79081 -2.34823 -0.116676 0 0 0
14 2 1.46628 1.74978 3.79955 -8.14276 19.8479 9.25802 0 0 0
15 2 3.03072 1.74978 3.79955 -8.58306 5.4871 40.7479 0 0 0
16 1 0 5.19267 4.11643 2.25152 -0.0868261 -0.847699 0 0 0
17 2 3.71478 5.64428 3.79955 -22.32 -26.0935 4.44321 0 0 0
18 2 0.78222 5.64428 3.79955 -2.03291 17.3266 -19.7765 0 0 0
19 1 0 2.59633 3.20557 -7.69418 -3.20628 6.60616 0 0 0
20 2 0 2.59633 2.24837 1.32446 1.01056 -8.46167 0 0 0
21 2 0 3.49956 3.52245 6.10082 7.59718 -20.6669 0 0 0
22 1 2.2485 6.49083 3.20557 0.811291 -3.30353 -1.03415 0 0 0
23 2 2.2485 6.49083 2.24837 -4.30822 10.4998 6.58557 0 0 0
24 2 2.2485 7.39406 3.52245 -11.1671 10.8963 -4.16002 0 0 0
ITEM: TIMESTEP
5
ITEM: NUMBER OF ATOMS
24
ITEM: BOX BOUNDS xy xz yz pp pp pp
0.0000000000000000e+00 4.4969999999999999e+00 0.0000000000000000e+00
0.0000000000000000e+00 7.7889999999999997e+00 0.0000000000000000e+00
0.0000000000000000e+00 7.3220000000000001e+00 0.0000000000000000e+00
ITEM: ATOMS id type x y z vx vy vz ix iy iz
1 1 0.0101381 2.59734 0.458157 4.06325 1.81614 0.860108 0 0 0
2 2 3.71383 2.15028 0.147612 -10.9805 -7.44164 -0.949205 0 0 0
3 2 0.790219 2.11731 0.127508 6.77095 -18.8914 -2.88941 0 0 0
4 1 2.25219 6.50694 0.449579 1.33648 6.83507 -2.12152 0 0 0
5 2 1.41659 6.03399 0.182318 -13.8629 -4.48051 15.1359 0 0 0
6 2 3.06978 6.07803 0.0916839 13.081 7.32452 -18.5119 0 0 0
7 1 2.26021 1.2888 6.86503 4.56926 -2.90525 0.518971 0 0 0
8 2 2.26483 0.355676 7.16119 9.04865 -30.2336 -4.46444 0 0 0
9 2 2.2657 1.30737 5.91143 8.7109 -0.805592 -11.823 0 0 0
10 1 4.4894 5.20342 6.86233 -2.71171 3.80807 -1.85787 -1 0 0
11 2 0.0230103 4.2287 7.17242 8.63635 -17.803 -5.31809 0 0 0
12 2 0.0532655 5.20573 5.87979 17.4962 -0.199555 -5.98968 0 0 0
13 1 2.24047 1.29006 4.11701 -3.70139 -3.73278 0.458317 0 0 0
14 2 1.44118 1.80663 3.81668 -6.87369 20.3024 7.3804 0 0 0
15 2 3.03646 1.78505 3.89474 10.9682 22.5756 32.3305 0 0 0
16 1 0.00631769 5.19047 4.11351 2.31873 -0.769394 -1.79676 0 0 0
17 2 3.65554 5.59683 3.80643 -20.0221 -12.4904 2.28059 0 0 0
18 2 0.780082 5.69422 3.74973 -2.46466 18.7866 -19.2751 0 0 0
19 1 4.47903 2.58722 3.22142 -6.88965 -3.7965 5.47132 -1 0 0
20 2 0.00440646 2.60406 2.23301 2.14508 5.00459 2.28119 0 0 0
21 2 0.0135367 3.54212 3.48537 4.63257 20.265 -9.47379 0 0 0
22 1 2.24976 6.48194 3.20427 0.115594 -3.29363 0.219099 0 0 0
23 2 2.23881 6.51936 2.24545 -3.85447 11.9141 -8.55386 0 0 0
24 2 2.2225 7.44229 3.52191 -9.1552 18.5252 0.0367659 0 0 0
