ITEM: TIMESTEP
0
ITEM: NUMBER OF ATOMS
24
ITEM: BOX BOUNDS xy xz yz pp pp pp
0.0000000000000000e+00 4.4969999999999999e+00 0.0000000000000000e+00
0.0000000000000000e+00 7.7889999999999997e+00 0.0000000000000000e+00
0.0000000000000000e+00 7.3220000000000001e+00 0.0000000000000000e+00
ITEM: ATOMS id type x y z vx vy vz ix iy iz
1 1 0 2.59633 0.455428 -4.60727 1.48437 1.56306 0 0 0
2 2 3.71478 2.14472 0.138555 7.09636 1.55936 -9.684 0 0 0
3 2 0.78222 2.14472 0.138555 -8.17135 2.00735 2.58158 0 0 0
4 1 2.2485 6.49083 0.455428 -0.244007 5.2371 9.54723 0 0 0
5 2 1.46628 6.03922 0.138555 -17.2219 -0.706303 6.02955 0 0 0
6 2 3.03072 6.03922 0.138555 39.0985 -1.89763 -14.097 0 0 0
7 1 2.2485 1.29817 6.86657 3.00754 -0.260634 1.12323 0 0 0
8 2 2.2485 0.394938 7.18345 -8.71405 -14.8077 17.2045 0 0 0
9 2 2.2485 1.29817 5.90937 3.53396 4.49702 -12.7124 0 0 0
10 1 0 5.19267 6.86657 -1.19212 2.0045 -3.04714 0 0 0
11 2 0 4.28944 7.18345 3.17511 0.211166 -7.79217 0 0 0
12 2 0 5.19267 5.90937 -3.32306 -4.51406 26.2995 0 0 0
13 1 2.2485 1.29817 4.11643 0.522677 2.94802 4.88143 0 0 0
14 2 1.46628 1.74978 3.79955 8.38782 -6.0635 -3.6328 0 0 0
15 2 3.03072 1.74978 3.79955 -11.2814 7.04946 -14.8906 0 0 0
16 1 0 5.19267 4.11643 1.13524 0.966977 -7.34436 0 0 0
17 2 3.71478 5.64428 3.79955 40.6055 4.995 -14.0948 0 0 0
18 2 0.78222 5.64428 3.79955 12.6116 -16.6336 -3.91026 0 0 0
19 1 0 2.59633 3.20557 -2.53059 -2.33281 -0.466394 0 0 0
20 2 0 2.59633 2.24837 17.3936 -9.78056 -3.82868 0 0 0
21 2 0 3.49956 3.52245 7.85944 -20.57 -15.0922 0 0 0
22 1 2.2485 6.49083 3.20557 -0.37153 -7.38726 -1.93151 0 0 0
23 2 2.2485 6.49083 2.24837 -8.48813 9.41499 -19.634 0 0 0
24 2 2.2485 7.39406 3.52245 -14.6271 3.01448 -1.40297 0 0 0
ITEM: TIMESTEP
5
ITEM: NUMBER OF ATOMS
24
ITEM: BOX BOUNDS xy xz yz pp pp pp
0.0000000000000000e+00 4.4969999999999999e+00 0.0000000000000000e+00
0.0000000000000000e+00 7.7889999999999997e+00 0.0000000000000000e+00
0.0000000000000000e+00 7.3220000000000001e+00 0.0000000000000000e+00
ITEM: ATOMS id type x y z vx vy vz ix iy iz
1 1 4.48609 2.60185 0.459771 -4.00729 2.98199 2.06016 -1 0 0
2 2 3.70693 2.12994 0.110009 -9.24256 -12.7762 -9.32136 0 0 0
3 2 0.78143 2.1341 0.140335 7.65619 -9.58343 -0.105525 0 0 0
4 1 2.24947 6.50486 0.477882 1.16341 5.65654 7.55197 0 0 0
5 2 1.42136 6.03218 0.153584 -9.85168 -1.58288 8.44961 0 0 0
6 2 3.10553 6.03504 0.110542 9.21133 4.46415 -4.29538 0 0 0
7 1 2.25554 1.29942 6.86826 2.60143 0.542823 0.229584 0 0 0
8 2 2.22951 0.344429 7.22786 -5.7582 -16.125 14.3722 0 0 0
9 2 2.25663 1.30185 5.88349 2.64753 -3.37369 -1.64538 0 0 0
10 1 4.49552 5.19891 6.8621 -0.590411 2.85888 -0.039521 -1 0 0
11 2 0.00916938 4.25851 7.1733 3.16833 -20.8064 -0.275303 0 0 0
12 2 4.48675 5.17851 5.92957 -5.65417 -4.3834 -18.9651 -1 0 0
13 1 2.25103 1.30324 4.12778 1.33024 1.03151 3.72891 0 0 0
14 2 1.46598 1.75266 3.7867 -7.14278 6.04357 -6.73168 0 0 0
15 2 3.02048 1.78504 3.75739 -0.718467 17.0665 -13.1542 0 0 0
16 1 0.00399728 5.19175 4.09992 2.5068 -1.93611 -5.95396 0 0 0
17 2 3.77457 5.68011 3.75558 0.650111 26.6118 -23.0095 0 0 0
18 2 0.829489 5.61884 3.78436 19.7387 -5.58458 -6.12401 0 0 0
19 1 4.48894 2.58755 3.2052 -2.85535 -4.66512 -0.0998637 -1 0 0
20 2 0.0407017 2.57885 2.23477 12.5512 -4.64184 -3.80715 0 0 0
21 2 0.0148821 3.5033 3.50346 5.75217 22.4802 0.301745 0 0 0
22 1 2.24758 6.4708 3.19952 -0.586102 -7.77119 -3.00252 0 0 0
23 2 2.2305 6.51892 2.20885 -4.93266 11.5853 -7.45459 0 0 0
24 2 2.2136 7.42171 3.5225 -11.1345 11.2505 0.740402 0 0 0
