LAMMPS (22 Jul 2025 - Update 2)
Running on 4 partitions of processors
