384
Step 0 OpenMM UMA
O  1.34483486 1.76327795 3.18820267
H  1.38176829 2.76187509 3.18827115
H  0.40960148 1.54356420 3.13457892
O  5.70550144 5.12357354 0.92744442
H  5.99335849 5.21163523 1.85081601
H  5.63683689 4.14516330 0.79196018
O  6.56346619 5.64525187 3.59130402
H  6.03146374 5.24776638 4.32783082
H  6.49464369 6.61197305 3.67023330
O  5.17135441 4.57114398 5.61250479
H  4.22163188 4.83594179 5.65066305
H  5.57648778 4.83304471 6.46249008
O  2.58876801 0.93700133 5.64702143
H  2.20623881 1.20549873 4.79168340
H  3.54237914 1.16484478 5.60965635
O  2.55055696 5.35077035 5.63103985
H  2.48880446 6.31940246 5.61470296
H  2.07161322 5.05156279 6.44668734
O  5.40029347 2.40713716 0.77570018
H  4.49180514 2.06453711 0.70375273
H  5.74675143 1.97514519 1.58542914
O  5.24078667 1.71780467 5.55302178
H  5.72811127 1.43071443 6.36569747
H  5.22798300 2.68818349 5.58665375
O  1.23269260 4.54931915 7.83407951
H  1.19317926 3.57294947 7.83710792
H  1.70161009 4.79707599 8.65295148
O  1.43766046 4.39534396 3.22045221
H  1.99621290 4.78038758 2.51344055
H  1.81668565 4.71311390 4.06244869
O  2.95904666 5.58540940 1.22714494
H  2.91537732 6.54566109 1.32546999
H  3.90943110 5.37785232 1.10840510
O  2.85426527 1.04633763 0.88363747
H  2.33330101 1.28085360 1.67617003
H  3.20521444 0.16783210 1.07642817
O  6.38768137 1.13332726 3.03429822
H  5.98114491 1.27022937 3.91269673
H  7.33164072 1.31400228 3.16033820
O  6.55799747 1.01437427 7.82135371
H  6.15649223 1.18643284 8.69094427
H  7.51584530 1.15958586 7.92599082
O  6.49429619 5.38611412 7.92988713
H  7.42117703 5.05577743 7.89174456
H  6.55167460 6.36056781 7.93784060
O  1.31029129 1.73348352 7.80118492
H  1.81647837 1.45034865 6.98295924
H  0.50003655 1.22057602 7.78251622
O  9.17259395 1.94056317 3.30705902
H  9.07866776 2.89723188 3.46603565
H  9.60709214 1.88234493 2.43678402
O  13.15320015 4.75138009 1.16035832
H  13.25998068 2.83178210 1.54450546
H  13.64989996 4.76817727 0.33401638
O  14.57264304 5.71729064 3.31915140
H  15.31529546 5.19799292 3.63541905
H  13.70573282 5.16975760 1.85224631
O  12.87238359 4.69287843 5.40328126
H  13.26877356 5.13643324 4.63731429
H  11.95401311 5.05643666 5.52267300
O  10.35805702 0.81342906 5.55761040
H  9.90723968 1.13909259 4.75150722
H  11.29617929 0.86769037 5.35877688
O  10.39832473 5.58434129 5.63957014
H  9.89046216 5.28347552 4.84388755
H  10.35005450 6.56216860 5.64390287
O  13.16514373 1.86888650 1.59170206
H  11.43259406 1.80305824 1.07046940
H  13.47155929 1.62342563 2.47809034
O  13.03103209 2.00504333 5.10102621
H  13.81475687 2.18797565 6.97017666
H  12.84945011 2.97568262 5.14950828
O  9.09814775 4.53914195 7.86802744
H  9.29052889 2.65249461 7.88295458
H  9.57878530 4.93073046 7.11136858
O  9.07158077 4.75393564 3.49189103
H  8.13221574 5.07758379 3.50771741
H  9.45257485 5.00522673 2.63607756
O  10.31217337 5.27893901 0.95298401
H  9.86577392 4.55849648 0.48892799
H  11.24096394 4.99396026 1.02156397
O  10.52241325 2.04981998 0.79643646
H  10.21547556 1.35184988 0.21017946
H  14.89080906 1.71063542 5.14244174
O  14.29706454 1.99078530 4.42807985
H  14.21600819 1.97982505 8.43652105
H  13.81495118 5.08024991 6.96584199
O  14.57809687 2.25796208 7.56271871
H  13.06915522 2.93980956 9.96695057
H  12.46536016 1.51429087 10.03218577
O  14.38196301 4.97341454 7.74298561
H  14.57248449 3.98969203 7.71925899
H  14.55160379 7.01793194 7.84275967
O  9.35941994 1.68356344 7.97090754
H  9.72301245 1.36024565 7.12071790
H  10.35287738 1.15282327 9.40484540
O  1.45913035 9.33715880 3.32858060
H  1.82345301 8.93881619 4.14778705
H  1.48013577 10.29884219 3.44282990
O  5.32244682 11.61573887 0.94760330
H  5.43309927 10.64926267 0.87977672
H  3.78514677 12.39959121 1.07429836
O  6.62601292 12.68295527 3.34120787
H  7.57116795 12.40686893 3.35413051
H  5.80886722 11.88886642 1.74196870
O  5.11391282 11.86611891 5.58126672
H  6.09457731 12.24532247 7.10672794
H  5.59983015 12.13645577 4.77731527
O  2.54171342 8.22065890 5.57044485
H  3.48320752 8.47217381 5.65377944
H  2.10224092 8.51221204 6.39406829
O  2.53661603 12.99257755 5.58040705
H  2.48898476 13.95273924 5.55661624
H  4.22964483 12.27503538 5.54791096
O  5.35133541 8.70908618 0.93994708
H  4.37495679 8.59793365 1.00511848
H  5.66075802 7.92669117 0.45626151
O  5.18259168 9.08370614 5.70308651
H  5.64440668 8.85017037 4.86590214
H  5.12336195 10.05861163 5.69529212
O  1.30743995 11.82026863 7.86703539
H  1.16968587 10.09745836 7.90174827
H  1.69684693 12.21836567 7.06797782
O  1.35430694 12.24441409 3.25886171
H  0.42162307 12.32164145 3.04440858
H  2.03624547 12.72751212 4.77753925
O  2.99834371 12.98692584 1.22119782
H  2.69466668 13.29312801 0.36511117
H  1.89613909 12.44602561 2.45204577
O  2.68097162 8.50037634 1.15967424
H  2.02921495 8.42500806 0.45798626
H  2.20221862 8.81140292 1.97617729
O  6.52889550 8.46804082 3.43031172
H  7.45678186 8.76561880 3.36957581
H  6.11386657 8.58352125 2.54638222
O  6.56444132 8.20594430 7.92570966
H  6.11437082 8.52944911 7.11421630
H  7.48893797 8.52490962 7.88788699
O  6.54189289 12.46748209 7.94506061
H  5.90037465 14.60442185 8.89522117
H  7.48546958 12.21399307 7.88416673
O  1.21628903 9.11088765 7.89917084
H  0.31667579 8.77217948 7.94340261
H  2.20272273 8.51325989 9.33342780
O  9.19921577 9.25344408 3.39008528
H  9.61645067 8.81227612 2.61227297
H  9.64389861 8.89301121 4.19600838
O  13.14126015 11.81168914 1.12308436
H  13.16486478 10.83700299 1.17071877
H  12.21665382 12.04271913 0.96245266
O  14.07982588 13.12731624 3.34817442
H  13.47035050 12.27648139 4.76725495
H  13.80716324 12.69087791 2.51901149
O  13.08306575 11.82681322 5.54969171
H  12.15525150 12.11120844 5.56956522
H  14.08374190 11.76120877 7.13953922
O  10.44749379 8.35582376 5.63111150
H  11.38911009 8.62222612 5.70818330
H  10.02113104 8.60595107 6.48508143
O  10.44066191 12.92869091 5.53941139
H  10.00993609 12.56404757 4.73225631
H  10.43829441 13.88388157 5.43501040
O  13.21879983 8.95934343 1.34020930
H  13.67332935 8.56372058 0.58661818
H  13.73950839 8.69516790 2.12996214
O  13.17692995 9.06800508 5.74270274
H  14.06008363 8.57636631 4.40586047
H  13.14715862 10.04493117 5.81671978
O  9.28592443 11.81371331 7.90488726
H  9.73692775 12.19341516 7.12598388
H  9.70686495 12.19371796 8.69970329
O  9.22922611 11.88961864 3.30829035
H  9.25575912 10.88949203 3.33855697
H  9.63967323 12.14167714 2.46416783
O  10.26177049 12.55818486 0.70215403
H  9.83563006 11.99044347 0.04894957
H  10.22891879 13.45008969 0.32998036
O  10.34171820 8.18227947 1.20047829
H  10.19448996 7.23845124 1.00366348
H  11.30048156 8.29922616 1.25879348
O  14.64753628 8.37875783 3.62215921
H  14.76633310 6.66168988 3.54374306
H  15.45458674 8.89660001 3.75985587
O  14.45870280 7.98067331 7.76724627
H  13.65595818 8.70466709 6.53964972
H  14.03677940 8.25720310 8.59589825
O  14.65775490 11.61730886 7.90031536
H  14.07772064 11.68473363 8.67832552
H  14.69149470 14.09113288 7.52116857
O  9.22623754 9.07071710 7.91108869
H  9.23303664 10.04486799 7.99336279
H  9.66254830 8.72852325 8.72801484
O  1.14787601 1.93264514 12.39132246
H  2.16848373 1.29583195 10.89335594
H  0.22949802 1.69923693 12.25335050
O  5.16788840 4.49191242 10.17658783
H  5.63291430 4.85396534 10.95596940
H  5.66291153 4.80068654 9.38437133
O  6.43253088 5.45760214 12.45381462
H  5.98777175 5.17695606 13.28478279
H  6.47877514 6.43278599 12.48916691
O  5.15266001 4.71174240 14.75765328
H  5.27214527 2.89525241 14.73081951
H  4.23439354 5.04539907 14.71836205
O  2.47082219 1.51975974 14.80522564
H  2.30359986 2.44591296 15.01889734
H  2.03620926 1.41662017 13.92852456
O  2.51973957 5.61278582 14.72434462
H  2.49334097 6.59129024 14.72769723
H  2.14275792 5.30940771 15.57205893
O  5.34955740 1.66048661 10.30591741
H  4.42201555 1.33360028 10.28117101
H  5.27306080 2.63214111 10.25459850
O  5.31273425 1.91709220 14.75630895
H  6.22171164 1.35628641 16.20212433
H  4.38881010 1.62095368 14.67780060
O  1.76497340 4.53449786 17.21011838
H  1.49730608 3.60674530 17.34600074
H  2.54060954 4.65639502 17.76942538
O  1.25087708 4.55706000 12.40907679
H  1.17751524 2.93430567 12.39519627
H  1.67360425 4.96452034 13.18606979
O  2.58379400 5.39682806 10.15915768
H  1.73319250 4.89291847 11.62428320
H  3.50970864 5.06441295 10.14855601
O  2.70423889 0.92178479 10.17433413
H  2.27747783 1.20845355 9.34753780
H  6.38490915 1.18444614 11.73479990
O  6.93770647 1.02855526 12.52714826
H  6.39255762 1.30495206 13.28342638
H  8.56496394 1.46928117 12.50037332
O  6.73847497 1.11398332 16.99936780
H  6.27346337 1.52729243 17.73141165
H  8.46449614 1.79969937 16.96512692
O  6.26326919 5.85511088 16.99360122
H  5.55997610 5.14487624 15.54573027
H  7.19660640 5.53827703 17.06219066
O  1.19700707 1.74426764 17.42107187
H  0.43493751 1.51778668 16.86563299
H  1.92665070 1.28981143 16.96901969
O  9.48663890 1.84504911 12.48474705
H  9.34511125 2.80959129 12.42385795
H  10.42181134 1.18884362 10.95829815
O  12.86900997 4.82172221 10.03021747
H  13.34200144 5.01933277 10.86212949
H  13.46517205 4.99019027 9.26930697
O  14.12636757 5.14612198 12.49010168
H  14.49511290 4.23552513 12.45033403
H  13.47203016 5.06634295 13.22306179
O  12.53963232 4.73838568 14.64867890
H  13.14772010 4.87288207 15.41194800
H  12.28397489 3.79218817 14.65785237
O  10.87947249 1.35849416 14.68024798
H  10.39763570 1.52456596 13.81725195
H  9.81841981 1.97846249 16.22480435
O  10.06651878 5.85450947 14.60579963
H  9.39736426 5.07173419 13.18742444
H  10.97559452 5.50040126 14.69546800
O  13.33495975 1.99525341 9.96024338
H  14.15863276 2.10799038 11.56837040
H  13.61779571 2.13491097 12.99491904
O  12.13490844 2.02423364 14.46078424
H  14.73199129 1.04740269 16.10663674
H  12.67660975 1.64708361 15.18481686
O  8.86327803 5.01851439 17.06392109
H  9.01090980 4.04970706 17.09395089
H  9.24707830 5.29872775 16.21087109
O  9.05083776 4.63874847 12.37602782
H  8.08623195 4.82174933 12.38128577
H  9.82467234 5.17352462 10.99690166
O  10.25874615 5.54302812 10.18369089
H  9.50849950 4.89323348 8.68512135
H  11.18407369 5.21605194 10.14510104
O  10.92416644 0.92509158 10.16806871
H  10.38288713 7.19951689 10.17663503
H  11.43710375 8.36330295 10.16491496
O  14.40038681 2.38305748 12.47970512
H  13.61588478 0.66647664 17.09377284
H  14.13889885 4.80327189 17.47250315
O  13.90370011 1.35888353 16.49160922
H  14.30175900 6.20721221 16.82241196
H  13.94441843 8.40147078 16.07969268
O  14.32918191 5.24468124 16.64105476
H  15.26183486 8.29168499 16.87084433
H  13.75526190 8.68616939 13.80014536
O  9.32347298 2.26907775 17.00677815
H  6.29210055 6.81026280 17.13044980
H  10.17991304 6.82218671 14.54184143
O  1.50840282 9.31903780 12.40156414
H  1.89023331 8.89820874 11.60090417
H  1.65573299 10.27030587 12.30344357
O  5.25702298 11.81550980 10.23402835
H  5.73753417 12.04527020 9.40225626
H  4.36371535 12.21031547 10.18262147
O  6.69043958 12.88039327 12.39518109
H  6.16495013 12.66995430 13.19239835
H  6.17899179 12.54817843 11.63416190
O  5.16630590 12.18967319 14.66232307
H  5.20026028 10.27228355 14.42783755
H  4.26181674 12.55151629 14.70356193
O  2.61636823 8.39610934 14.67653707
H  2.19361991 8.69833887 13.83481309
H  3.55788201 8.66339505 14.60555534
O  2.51331389 13.17551136 14.76366373
H  2.50872582 14.13068056 14.86792755
H  2.08370343 12.80099273 15.58585351
O  5.26439369 9.03056443 10.15553866
H  5.27273536 10.01073360 10.16502790
H  5.73735237 8.74696553 9.33834151
O  5.22703528 9.30695176 14.53205194
H  6.01319849 9.06940699 16.18324874
H  5.72825611 8.94755960 13.75778588
O  1.47205368 12.14119196 16.96120485
H  1.53883621 11.14817739 16.96462735
H  0.55124000 12.33286738 17.15278570
O  1.35000378 12.27585793 12.43900108
H  0.39871003 12.16176391 12.56003493
H  1.71083838 12.59164929 13.29242254
O  2.64119744 13.01478267 10.13623411
H  2.16005102 12.78341770 10.96146334
H  1.77096650 12.22867489 8.61466723
O  2.65260339 8.20301175 10.13940202
H  2.64354169 6.37247980 10.14702516
H  3.59332681 8.48324955 10.07740481
O  6.56949997 8.27275515 12.43543259
H  7.49397099 8.59138489 12.36106939
H  6.12120688 8.52143586 11.59637887
O  6.39274776 9.11942840 17.08252650
H  7.35405862 9.01244640 16.96296744
H  9.67145860 8.79544497 17.73927253
O  6.42562270 12.17529297 17.24750046
H  5.55577457 12.32477307 15.54294895
H  6.27880037 11.23078704 17.45341174
O  1.50021642 9.49147999 16.86121085
H  1.71916679 8.91587615 17.60576738
H  1.88642442 9.07168031 16.05436085
O  9.17357147 9.28834498 12.26709502
H  9.64932501 8.88035059 11.50141650
H  9.64012265 8.98929775 13.07497371
O  13.01904798 11.62882209 10.32388375
H  13.17494512 9.80906367 10.30078819
H  12.16569543 12.08842039 10.29764001
O  14.50627208 12.60820746 12.41141172
H  13.54073405 12.05795646 11.03312172
H  15.03609180 13.40643764 12.46319136
O  13.13328505 11.92161798 14.69658310
H  14.08011079 12.47662902 13.28146756
H  12.19929695 12.21534610 14.64687670
O  10.50562501 8.62842560 14.54670430
H  11.47443771 8.77035081 14.58415799
H  10.13504028 8.85596633 15.42051129
O  10.48135877 12.81979799 14.52238009
H  9.97967780 12.46505380 13.73602647
H  9.68585074 12.26193547 16.14116738
O  13.16435337 8.83271635 10.21792187
H  13.66196513 8.48774016 10.98433897
H  15.55082202 7.96941459 12.24840668
O  13.26550841 9.08783793 14.54447447
H  13.33008647 10.05916595 14.46690704
H  14.56838369 6.77663922 12.45295164
O  9.34654534 11.95672274 17.00197194
H  8.40317130 12.18958735 17.02355963
H  9.39151466 10.21166682 17.09943035
O  9.15880978 11.94488645 12.37232122
H  8.21162879 12.25159407 12.38818497
H  9.14026856 10.95425367 12.31337320
O  10.43296099 12.88178205 10.21385558
H  10.36297202 13.84175301 10.23035403
H  9.93713200 12.55591035 11.01203275
O  10.47032833 8.18818033 10.14310221
H  5.64988017 15.21517634 9.23825982
H  10.42704582 13.77824664 14.44692148
O  14.62529182 7.76611626 12.42820075
H  13.47369432 12.21853375 15.55835536
H  14.00356889 12.20767856 17.95950375
O  14.33648944 8.02603304 16.89399516
H  14.28172588 13.64698648 17.50448623
H  6.09455884 12.68739462 17.99782938
O  14.22773719 12.73741841 17.18961640
H  14.55939293 14.78950977 7.29968022
H  14.99500155 13.41530800 3.22032689
O  9.30576026 9.23921585 16.96329263
H  2.74321258 13.96881700 10.14210987
H  6.62793756 13.64852071 3.28794302
384
Step 10 OpenMM UMA
O  1.35852158 1.71794192 3.17014047
H  1.51692922 2.67992042 3.05193348
H  0.43137344 1.63921020 2.99999203
O  5.67554289 5.11296776 0.86616761
H  6.02753801 5.25538700 1.78095281
H  5.60354604 4.13470277 0.77785758
O  6.61986670 5.62737464 3.55028792
H  6.01008969 5.22964429 4.21379219
H  6.53001490 6.57053973 3.62480318
O  5.15557977 4.54893613 5.58932567
H  4.18965135 4.72515510 5.63914924
H  5.52414913 4.74936267 6.48307985
O  2.55342585 0.87536623 5.65230669
H  2.09021388 1.06425759 4.81466257
H  3.46525758 1.20892909 5.55688162
O  2.56437700 5.29126576 5.66415197
H  2.67218908 6.23820213 5.63916656
H  1.95714420 5.10297108 6.42944143
O  5.41637712 2.38482508 0.81945196
H  4.49869759 2.05837044 0.71162964
H  5.69616096 2.05936964 1.70982453
O  5.27006975 1.70479657 5.55375972
H  5.77011851 1.39530525 6.35036130
H  5.15035800 2.66196607 5.68391332
O  1.21219458 4.53591315 7.86471500
H  1.18067792 3.58189062 7.74086420
H  1.78941080 4.68462193 8.64988896
O  1.40571555 4.44521407 3.19863796
H  1.81837143 4.84898962 2.42982668
H  1.78337279 4.90142548 3.97141777
O  3.01018551 5.60944280 1.19583432
H  2.96441196 6.58880559 1.36421118
H  3.97821852 5.38067440 1.19431293
O  2.87320459 1.06681990 0.86396849
H  2.34000216 1.27004153 1.69573588
H  3.42596671 0.33557784 1.12934457
O  6.41559422 1.12737690 3.01073188
H  6.05587226 1.28645639 3.90929889
H  7.35214452 1.35696307 3.07957105
O  6.55594001 1.00336188 7.77922595
H  6.18439299 1.16803204 8.65307866
H  7.49655404 1.04142470 7.88149969
O  6.46350294 5.38731446 7.92867985
H  7.40932041 5.09911481 7.93388643
H  6.45824375 6.37570678 7.97589463
O  1.30189777 1.70240393 7.88059507
H  1.73794105 1.49496666 7.00971043
H  0.55146654 1.12642396 7.91306071
O  9.14973324 1.93461117 3.30838247
H  9.07314681 2.89077340 3.44784231
H  9.67194658 1.86122982 2.50253485
O  13.10804882 4.75532889 1.12546601
H  13.33704873 2.78263772 1.44902115
H  13.60417175 4.90103336 0.33016267
O  14.58707383 5.67342365 3.28254560
H  15.41267513 5.24203809 3.54811159
H  13.55367941 5.31998392 1.80480183
O  12.85881087 4.68656710 5.36545809
H  13.34485205 5.13656926 4.67144758
H  11.92360636 5.00537441 5.36236922
O  10.42063136 0.80154665 5.56297500
H  9.93460760 1.10632212 4.79458669
H  11.30436956 0.58434007 5.22983917
O  10.38140953 5.57513359 5.60230264
H  9.90822662 5.37640916 4.76164846
H  10.31986466 6.53890738 5.75045291
O  13.19321944 1.86359166 1.56362442
H  11.43169436 1.83431284 1.13341693
H  13.55922521 1.67737104 2.50121744
O  13.03078059 1.98167083 5.14221763
H  13.89073140 2.24596408 6.97009857
H  12.84676711 2.95263769 5.11816916
O  9.14632351 4.52288667 7.86074360
H  9.27947365 2.65407793 7.91508402
H  9.60690417 4.84758878 7.06329389
O  9.12265099 4.74918025 3.47833526
H  8.17876959 5.02978753 3.37490544
H  9.56165505 4.88401846 2.62330034
O  10.25306332 5.27040276 0.97524348
H  9.98908723 4.58427356 0.35237502
H  11.15857366 5.04206875 1.18944631
O  10.52196752 2.07395547 0.82284974
H  10.26332073 1.36065150 0.18873838
H  14.92143971 1.69610223 5.09494299
O  14.27363358 1.96685556 4.43006645
H  14.16832897 1.99724344 8.44863699
H  13.75143930 4.98032181 6.96461403
O  14.60877795 2.27327257 7.60469597
H  13.03673376 2.99832005 9.98462787
H  12.47533979 1.55393083 10.09477739
O  14.35856897 4.99726488 7.73507318
H  14.47919617 4.02261072 7.92562396
H  14.39105739 7.07178193 7.81594718
O  9.37261936 1.70514461 8.00447134
H  9.77611496 1.38949067 7.14573553
H  10.39019098 1.22355575 9.41206277
O  1.42563382 9.31972974 3.36130156
H  1.78343841 8.97423017 4.20715233
H  1.37532934 10.29108019 3.42801535
O  5.35572574 11.63461771 0.95002078
H  5.46216292 10.66796505 0.82779720
H  3.74931161 12.39796237 1.05733982
O  6.68178120 12.72300650 3.40109474
H  7.60022412 12.36779078 3.30144911
H  5.66178866 11.85495326 1.81177624
O  5.06896474 11.90060296 5.64468948
H  5.96207912 12.37498774 7.21591329
H  5.53719011 12.19616235 4.84189240
O  2.54521457 8.32318280 5.58515605
H  3.48373674 8.59429719 5.63842757
H  2.16391229 8.44223201 6.48820053
O  2.48399699 13.05322404 5.57772340
H  2.26557347 13.96638079 5.53109573
H  4.14200506 12.18114339 5.52170747
O  5.37980692 8.71337074 0.92807675
H  4.40412310 8.62300984 1.05256554
H  5.67150110 7.83557296 0.56482454
O  5.14545014 9.12138103 5.70553414
H  5.52246981 8.90380997 4.83154364
H  5.11862180 10.10374607 5.73753487
O  1.26040207 11.81022441 7.91221712
H  1.05827333 10.06626332 7.96262640
H  1.75766812 12.10922555 7.10089815
O  1.39650627 12.23667340 3.20676916
H  0.48779992 12.53593409 3.03188180
H  2.00686954 12.62551509 4.84487483
O  2.97072796 12.97145054 1.25578929
H  2.64151751 13.25079650 0.37221400
H  1.92739054 12.57407747 2.43828144
O  2.70122145 8.49364620 1.24858610
H  2.10850486 8.46090606 0.48225584
H  2.20681952 8.89261884 2.00173372
O  6.49562466 8.40972691 3.45378306
H  7.41566827 8.68374946 3.26206846
H  5.97046816 8.60523099 2.64630723
O  6.56973788 8.16411521 7.92347165
H  6.13689262 8.49248282 7.12408117
H  7.50074481 8.48691405 7.89274651
O  6.54420575 12.47740406 7.97732649
H  5.83725922 14.44995468 8.95949617
H  7.40466953 12.14966632 7.70128310
O  1.23714588 9.10820271 7.89990851
H  0.42473335 8.62288873 8.05850111
H  2.23370787 8.58680463 9.36651985
O  9.23566511 9.26170627 3.41892773
H  9.54706402 8.77964719 2.62703005
H  9.63028464 8.81549589 4.19669148
O  13.05233996 11.81817967 1.11249615
H  13.09942903 10.86743544 1.07969079
H  12.18592747 12.02624698 0.75964786
O  14.05703568 13.04652018 3.41191394
H  13.50275099 12.21264694 4.76902015
H  13.80829258 12.59187054 2.60187937
O  13.11391580 11.82047949 5.57221015
H  12.20458121 12.16001984 5.64225924
H  14.02285624 11.85429200 7.20996846
O  10.48735378 8.36040880 5.69355822
H  11.45131739 8.62844756 5.79095968
H  9.99021247 8.72811743 6.45172930
O  10.40306450 12.98184108 5.58902580
H  10.00882084 12.57691111 4.78196039
H  10.64427816 13.89177439 5.34303388
O  13.19836455 8.92727441 1.29995183
H  13.69155378 8.41652182 0.66329454
H  13.69470580 8.86225484 2.14694682
O  13.11837886 9.06514614 5.75564892
H  14.08162369 8.61345117 4.46186913
H  13.06464188 10.03042405 5.93286726
O  9.27875123 11.79135439 7.89385585
H  9.84074472 12.21003313 7.21319019
H  9.58608905 12.17309049 8.75598768
O  9.21015421 11.85844118 3.28821559
H  9.23910537 10.85424236 3.26998455
H  9.48080168 12.15251869 2.43574899
O  10.33978176 12.57452953 0.72930265
H  10.00837764 11.96045541 0.04031446
H  10.54368750 13.39900681 0.24406146
O  10.34394387 8.15474790 1.18259939
H  10.17137871 7.22067238 0.97929303
H  11.27126985 8.21824925 1.35772299
O  14.56181775 8.37852001 3.63357706
H  14.66873250 6.62690462 3.48228460
H  15.47728655 8.64856752 3.83514804
O  14.44217098 8.00642119 7.76666988
H  13.57828845 8.65850988 6.53655334
H  14.09491708 8.36446872 8.63591236
O  14.68271239 11.61147297 7.88406241
H  14.24056149 11.72656941 8.75366838
H  14.65884323 14.10303039 7.57807990
O  9.23735374 9.03873272 7.88039855
H  9.42884899 9.99549915 7.94218364
H  9.76540995 8.62515537 8.59839467
O  1.12542673 1.92683059 12.42106263
H  2.27079961 1.46940737 10.84528373
H  0.31009663 1.66262159 11.95771646
O  5.16163919 4.55408372 10.22784851
H  5.73730263 4.85639301 10.93461200
H  5.61655302 4.76037788 9.38195625
O  6.48337764 5.40330073 12.42369352
H  5.96573073 5.14679321 13.21496292
H  6.57424014 6.38344139 12.48869696
O  5.17106403 4.68871728 14.80112097
H  5.27283659 2.84231156 14.66827021
H  4.28983599 5.10090753 14.79102748
O  2.46208527 1.50468770 14.78434244
H  2.36753219 2.36605438 15.22546250
H  1.89238370 1.57819604 13.97648493
O  2.48968172 5.64380130 14.70929922
H  2.32968979 6.55770316 14.91085206
H  2.17470734 5.10722807 15.45449104
O  5.37482275 1.63076729 10.28043137
H  4.45396768 1.28556978 10.17142610
H  5.25925911 2.55702399 10.50056980
O  5.20666637 1.86859460 14.69435895
H  6.09425648 1.29450710 16.25282712
H  4.23803934 1.66857375 14.58083872
O  1.71153972 4.57494084 17.17269796
H  1.36617975 3.65533698 17.28426920
H  2.55836157 4.54793409 17.60466830
O  1.19859724 4.55512268 12.42969802
H  1.15191938 2.92729970 12.36728306
H  1.74795572 4.92307649 13.13716414
O  2.62096044 5.42422137 10.15848266
H  1.57254850 4.92335209 11.58415026
H  3.55292581 5.09587499 10.14163555
O  2.72050693 0.94852263 10.20000554
H  2.35207590 1.20214507 9.31058183
H  6.38593400 1.25377569 11.80189517
O  6.92114895 1.07977404 12.59015043
H  6.39065157 1.35907006 13.33933768
H  8.57003180 1.46524976 12.36036229
O  6.73614565 1.15182524 16.97332282
H  6.28535940 1.36686368 17.77123166
H  8.43956515 1.86869564 16.86214517
O  6.29279727 5.86389956 16.94095907
H  5.65921916 5.12846694 15.54703578
H  7.21681607 5.55966052 17.07151905
O  1.21636294 1.72089278 17.39011325
H  0.45388474 1.49843529 16.81490454
H  1.95282606 1.25803073 16.95022651
O  9.48460733 1.84200467 12.45387154
H  9.37101200 2.80664137 12.44759522
H  10.51890331 1.26352556 10.96573122
O  12.89207257 4.81405394 10.03477619
H  13.32343319 4.98683701 10.90662408
H  13.46921090 5.12148374 9.32626848
O  14.07935416 5.15132563 12.49039000
H  14.45840098 4.24182517 12.55250131
H  13.48175764 5.15523057 13.28258507
O  12.52453144 4.75170371 14.67638262
H  13.12971179 4.93805754 15.42198227
H  12.28064742 3.81404665 14.73868852
O  10.93884288 1.35774560 14.67713213
H  10.48347644 1.41295058 13.79077128
H  9.89896176 1.90287567 16.29415017
O  10.09625225 5.80113002 14.64366587
H  9.47573071 5.12521228 13.11438248
H  11.00264688 5.41607193 14.76409282
O  13.31915435 2.06444465 9.95631964
H  14.26278629 2.16730931 11.61740975
H  13.58735407 2.12285567 12.97069438
O  12.11186363 2.08168865 14.49060748
H  14.81289756 1.08350242 16.14805649
H  12.72988425 1.69315345 15.12989391
O  8.84644161 4.97573743 17.01572798
H  9.02782247 4.01550397 17.08651209
H  9.25046093 5.24155997 16.15453508
O  9.09662510 4.66816290 12.32807196
H  8.11965472 4.74055418 12.44708979
H  9.91122968 5.12810493 11.01632249
O  10.27618490 5.52389846 10.18359853
H  9.57296838 4.93912701 8.63765094
H  11.23391932 5.35894323 10.13908446
O  10.96736643 0.95316723 10.15828211
H  10.42609918 7.20166750 10.19084362
H  11.47429307 8.40882404 10.26261508
O  14.39996626 2.38767969 12.56332121
H  13.53186140 0.62975968 16.87708342
H  14.17871275 4.84906617 17.47166293
O  13.93851719 1.38455516 16.46468039
H  14.33651886 6.27302281 16.78157420
H  13.97949541 8.48582319 16.15069766
O  14.28596323 5.30297361 16.60330301
H  15.27742470 8.26221797 16.85150131
H  13.55344088 8.65036483 13.72241385
O  9.33397485 2.26079760 16.99449915
H  6.25625336 6.79443703 17.25365423
H  10.24224456 6.74593499 14.50261876
O  1.47662941 9.32258420 12.40591286
H  1.99663488 8.96213355 11.63761196
H  1.64242103 10.29841744 12.40312888
O  5.25627965 11.85237039 10.24795569
H  5.87626684 12.03435242 9.49758744
H  4.39812187 12.22082548 9.92976376
O  6.68726753 12.85414877 12.40507884
H  6.33370936 12.76941053 13.28053252
H  5.97347138 12.55747683 11.82414596
O  5.18273504 12.13391056 14.67415207
H  5.21174057 10.26218573 14.35861507
H  4.31801715 12.60311651 14.60044749
O  2.58539362 8.40650674 14.63764203
H  2.23679916 8.85822025 13.84575829
H  3.52251226 8.67557433 14.73166862
O  2.50318131 13.16757620 14.75465375
H  2.39253117 14.12045801 14.72892894
H  2.07493982 12.84308618 15.59161413
O  5.35213715 9.02471324 10.18572068
H  5.24649825 9.98373694 10.13127994
H  5.80280979 8.74102791 9.35832116
O  5.24744899 9.28909870 14.47317509
H  5.86266691 9.11373248 16.25042271
H  5.68810455 8.90574839 13.67655582
O  1.45769148 12.14014381 16.96849951
H  1.43892803 11.14937635 16.96648138
H  0.58394833 12.42377504 17.23969468
O  1.32667439 12.31408429 12.40666727
H  0.40320117 12.17846318 12.53180096
H  1.70703803 12.55984968 13.28284804
O  2.69031525 12.97366674 10.13359899
H  2.12464646 12.70242648 10.86662140
H  1.55780527 12.38150420 8.62592713
O  2.66016322 8.23686625 10.15773061
H  2.66567928 6.37757582 10.15457504
H  3.62560626 8.42528271 10.07507153
O  6.55006813 8.29109606 12.44643783
H  7.48411588 8.57410142 12.38281692
H  6.17577316 8.42720187 11.55060244
O  6.36509742 9.13322764 17.07314552
H  7.32008819 9.09789538 16.78793613
H  9.62630220 8.97024277 17.78662157
O  6.41061466 12.17358206 17.25397237
H  5.55429777 12.41938094 15.52127912
H  6.26940514 11.23817911 17.49473436
O  1.50221750 9.43192442 16.80719347
H  1.85363046 8.95136460 17.60293262
H  1.93752321 9.01457935 16.02375361
O  9.18906892 9.23797982 12.22206267
H  9.74220733 8.84548261 11.51350428
H  9.61624131 9.03449317 13.07312877
O  13.01296811 11.54698084 10.33057005
H  13.11430921 9.83446899 10.30172464
H  12.11158353 11.94412560 10.12146715
O  14.49893310 12.64248548 12.40609123
H  13.36071635 12.01259819 11.11732407
H  15.03810173 13.40723072 12.47866117
O  13.12007164 11.91037476 14.67455434
H  14.03753662 12.53995953 13.23510587
H  12.16614975 12.19888575 14.67355962
O  10.45813663 8.65333903 14.50501440
H  11.44030623 8.81531661 14.61914555
H  10.04436842 8.91724955 15.34979161
O  10.47196551 12.77913336 14.55387428
H  9.94643703 12.44140578 13.78807380
H  9.62152107 12.30243305 16.12971769
O  13.22928897 8.86831324 10.21803205
H  13.70188144 8.57242186 10.99550898
H  15.60477512 8.03256512 12.45158771
O  13.27762808 9.10964358 14.54329878
H  13.30145369 10.06177691 14.37821672
H  14.57728762 6.82218350 12.33700662
O  9.31565460 11.98087046 16.99998714
H  8.39621188 12.24190073 17.09697972
H  9.46607462 10.27826309 16.96141259
O  9.12925767 11.93386033 12.31714329
H  8.20333432 12.22323752 12.49385064
H  9.09682730 10.95015824 12.20475706
O  10.41997954 12.92368031 10.24207452
H  10.54226951 13.87680567 10.17010834
H  9.93921932 12.70493727 11.07870126
O  10.52544818 8.18789259 10.11274515
H  5.49261153 15.01382413 9.25536662
H  10.59105965 13.74427138 14.39747896
O  14.64111978 7.80300916 12.40071252
H  13.48137590 12.15056584 15.51821082
H  13.90385508 12.17785403 17.93958108
O  14.38357580 8.02688695 16.89773552
H  14.09208971 13.62413677 17.46881284
H  6.04048047 12.72579121 17.96544909
O  14.24056653 12.69993839 17.21481799
H  14.54946246 14.80883084 7.44579823
H  14.82384421 13.62031129 3.21204337
O  9.33646482 9.30256756 16.94734056
H  2.80804138 13.89845642 10.24407250
H  6.74805770 13.67240651 3.37069262
384
Step 20 OpenMM UMA
O  1.37702134 1.68963575 3.13316146
H  1.53763305 2.65079661 3.25280007
H  0.46984745 1.64145534 2.86492954
O  5.65603927 5.10561703 0.80925407
H  6.09205376 5.21580067 1.70062641
H  5.59117844 4.12843141 0.74212309
O  6.66537501 5.60638743 3.50483900
H  6.12161352 5.17837363 4.20337945
H  6.57935017 6.53647373 3.63526429
O  5.13355432 4.52220589 5.57498539
H  4.17138437 4.68645871 5.67428721
H  5.57492548 4.82592773 6.41950078
O  2.51136155 0.82024071 5.66194368
H  2.07015530 1.03389438 4.81803459
H  3.45326986 1.05911355 5.53937961
O  2.57110779 5.24992002 5.69288030
H  2.69914659 6.19032262 5.65046242
H  2.02745296 5.04543535 6.50695493
O  5.43024494 2.37687924 0.85730414
H  4.48000369 2.15824292 0.74289746
H  5.72331585 1.95791481 1.71152527
O  5.28940636 1.69198327 5.54880092
H  5.75885896 1.36429557 6.35520951
H  5.25812924 2.67107002 5.64476851
O  1.19245207 4.52098551 7.88329847
H  1.07929272 3.57163628 7.82997625
H  1.76761167 4.68982956 8.67478664
O  1.37040541 4.49607459 3.15688812
H  1.83750448 4.88307755 2.41801839
H  1.77533297 4.87222772 3.95945403
O  3.05143806 5.63319050 1.16938113
H  3.01942895 6.61598742 1.36600081
H  4.02737795 5.37979037 1.11074573
O  2.90424154 1.08081226 0.85281535
H  2.31231632 1.24457200 1.67282907
H  3.58593044 0.47500157 1.14881082
O  6.44065224 1.12821449 2.99630821
H  6.09680943 1.31011519 3.89644992
H  7.38158574 1.34279740 3.02126325