LAMMPS data file. CGCMM style. atom_style full generated by VMD/TopoTools v1.7 on Fri Dec 06 17:15:28 EST 2019
 48 atoms
 32 bonds
 16 angles
 0 dihedrals
 0 impropers
 2 atom types
 1 bond types
 1 angle types
 0 dihedral types
 0 improper types
 0.249472 9.233972  xlo xhi
 0.548007 8.328807  ylo yhi
 0.169594 7.505394  zlo zhi

 Masses

 1 1.007940 # 1
 2 15.999400 # 2

 Atoms # full

7 1 2 0.0 5.3820344853 0.7043883521 6.4062773268
36 1 1 0.0 2.8078499452 5.2904996495 6.3069951158
9 1 1 0.0 6.2021443509 1.1152393203 6.6802765094
37 1 2 0.0 7.7734577065 2.0930283345 2.802008579
8 1 1 0.0 5.3267853887 0.8817581866 5.4671395729
39 1 1 0.0 8.4680127161 1.5568230271 3.1848701578
38 1 1 0.0 7.9293384534 2.0497402715 1.8584412772
32 1 1 0.0 2.1144463275 1.8650434534 6.3324319055
18 1 1 0.0 7.8023133584 4.5737136244 5.1720669261
16 1 2 0.0 7.9500989347 4.5368392091 6.1172088513
34 1 2 0.0 3.4509554514 4.8228229504 5.7738968081
14 1 1 0.0 7.8145623967 2.8895709108 6.7517452795
26 1 1 0.0 7.6260264047 3.6501808227 3.068024274
47 1 1 0.0 5.0100197688 5.7403886242 6.7053821867
27 1 1 0.0 8.3414747485 4.9764176362 2.9207381244
19 1 2 0.0 5.514285128 6.3260683233 2.4487778802
20 1 1 0.0 6.2062982185 5.8146408043 2.8683487861
21 1 1 0.0 5.6975335741 6.2546982253 1.5118622584
25 1 2 0.0 7.5466157924 4.5806712144 3.2785896806
5 1 1 0.0 3.870682076 1.4578742438 3.114968653
45 1 1 0.0 1.4421043244 6.4867667328 0.4678008743
6 1 1 0.0 3.1560485634 2.7788664796 2.9236666296
4 1 2 0.0 3.1329410141 1.8599937206 2.6561646079
10 1 2 0.0 3.3396867115 4.5461674133 3.0267897443
11 1 1 0.0 4.0948315045 4.9591494985 2.6076456055
12 1 1 0.0 3.4170071046 4.7857618087 3.9504167221
35 1 1 0.0 3.4772603274 3.9417907132 6.1475019561
41 1 1 0.0 3.3351785694 2.5267938859 0.8820791325
42 1 1 0.0 4.2663268966 1.9317535085 7.2050234268
40 1 2 0.0 3.5869702599 2.596532157 7.3191394729
33 1 1 0.0 1.7897892448 0.4224744357 6.6578933118
13 1 2 0.0 7.7618817897 1.9816094716 7.0506293979
15 1 1 0.0 8.5339520434 1.5595752126 6.6734114459
31 1 2 0.0 1.4689760395 1.1781011867 6.1654040994
17 1 1 0.0 7.2198064926 5.0281489823 6.493690998
23 1 1 0.0 1.135851798 0.4556005204 4.5079952726
29 1 1 0.0 6.2751425961 1.2852496969 3.4876761185
48 1 1 0.0 5.7035208119 7.0863534934 6.7068537974
22 1 2 0.0 1.1025411452 0.2454991623 3.5746115163
30 1 1 0.0 5.5740246528 8.072317879 3.3197432718
24 1 1 0.0 1.9269377314 0.5822213522 3.223249763
28 1 2 0.0 5.4682117391 0.8210639706 3.7110445375
44 1 1 0.0 0.6421836726 6.0527170325 6.6157758157
3 1 1 0.0 0.8707030761 6.5965537689 2.8650523783
1 1 2 0.0 0.930230922 5.8110767646 2.3210200037
2 1 1 0.0 1.7438487087 5.3889044904 2.5972118861
43 1 2 0.0 1.4709422626 6.4593422998 6.8693416848
46 1 2 0.0 5.8051532875 6.1820210422 7.0040676377

 Bonds

1 1 1 2
2 1 1 3
3 1 4 5
4 1 4 6
5 1 7 8
6 1 7 9
7 1 10 11
8 1 10 12
9 1 13 14
10 1 13 15
11 1 16 17
12 1 16 18
13 1 19 20
14 1 19 21
15 1 22 23
16 1 22 24
17 1 25 26
18 1 25 27
19 1 28 30
20 1 28 29
21 1 31 33
22 1 31 32
23 1 34 35
24 1 34 36
25 1 37 39
26 1 37 38
27 1 40 41
28 1 40 42
29 1 43 44
30 1 43 45
31 1 46 47
32 1 46 48

 Angles

1 1 2 1 3
2 1 5 4 6
3 1 8 7 9
4 1 11 10 12
5 1 14 13 15
6 1 17 16 18
7 1 20 19 21
8 1 23 22 24
9 1 26 25 27
10 1 29 28 30
11 1 32 31 33
12 1 35 34 36
13 1 38 37 39
14 1 41 40 42
15 1 44 43 45
16 1 47 46 48

