LAMMPS ice Ih (UMA) from ice.cif

384 atoms
2 atom types

0.0 15.645677531129 xlo xhi
0.0 14.707145294364 ylo yhi
0.0 18.073037030848 zlo zhi
0.000000000000 0.000000000000 0.000000000000 xy xz yz

Masses

1 15.9994  # O
2 1.008    # H

Atoms  # id type x y z

1 1 1.37681962 1.75897458 3.36881410
2 2 1.33457629 2.71493902 3.36519950
3 2 0.46154749 1.47806810 3.37062141
4 1 5.19749408 4.47244288 1.10606987
5 2 5.67781638 4.80923651 1.86152281
6 2 5.67312267 4.81070723 0.34700231
7 1 6.58526567 5.38722732 3.30917308
8 2 6.12684732 5.10485013 4.09896480
9 2 6.55553889 6.34319177 3.34170455
10 1 5.27572246 4.48862074 5.56468810
11 2 4.38391884 4.83570937 5.59902687
12 2 5.69659119 4.82688509 6.35628712
13 1 2.58779506 0.83683657 5.67131902
14 2 2.17474918 1.17510091 4.87791269
15 2 3.48585695 1.16627662 5.63517295
16 1 2.68636283 5.43281947 5.56107349
17 2 2.65507148 6.38878392 5.59360496
18 2 2.22637991 5.15044228 6.35267252
19 1 5.19749408 1.71338243 1.06992379
20 2 5.22722086 2.66934687 1.10245526
21 2 5.65278329 1.43247595 1.86513742
22 1 5.19749408 1.73103100 5.57553192
23 2 5.65278329 1.45012453 6.36893825
24 2 5.22722086 2.68699545 5.60806339
25 1 1.32362432 4.61069005 7.81658852
26 2 1.33144716 3.65472561 7.84911998
27 2 1.78047810 4.88277224 8.61180215
28 1 1.29546210 4.51803503 3.35797028
29 2 1.77734897 4.84894580 2.60071003
30 2 1.77734897 4.85482866 4.11342323
31 1 2.60500531 5.41517090 1.10064796
32 2 2.64411950 6.37113534 1.10787717
33 2 3.52184201 5.13720585 1.10245526
34 1 2.58779506 0.81771728 1.07534570
35 2 2.17474918 1.16333519 1.86513742
36 2 3.48585695 1.14715733 1.10787717
37 1 6.54145778 0.86625086 3.32724612
38 2 6.08616856 1.14274519 4.12065244
39 2 8.28438625 1.47806810 3.37062141
40 1 6.54145778 0.88389943 7.83104695
41 2 6.08929770 1.15451091 8.62987518
42 2 8.28125712 1.50454096 7.88888066
43 1 6.50703729 5.40487590 7.85815650
44 2 7.42700312 5.14014728 7.85996380
45 2 6.53207037 6.36231105 7.86538572
46 1 1.35022197 1.85310031 7.91960483
47 2 1.76796156 1.50895311 7.12981311
48 2 0.45841835 1.50454096 7.88888066
49 1 9.19965839 1.75897458 3.36881410
50 2 9.15741506 2.71493902 3.36519950
51 2 10.01479819 1.16333519 1.87598124
52 1 13.04693049 4.54744933 1.15125246
53 2 13.06101160 3.59148488 1.11510638
54 2 13.50221971 4.82394366 0.35603883
55 1 14.35490913 5.46076305 3.40134557
56 2 15.25453559 5.13720585 3.35977758
57 2 13.94186325 5.12249871 2.60613194
58 1 13.09856123 4.49009146 5.65686059
59 2 13.51786539 4.82100223 4.86345427
60 2 12.20675761 4.83570937 5.61890721
61 1 10.41063383 0.83683657 5.67131902
62 2 9.99758794 1.17510091 4.87791269
63 2 11.30869572 1.16627662 5.63517295
64 1 10.50920160 5.43281947 5.65143868
65 2 10.04765411 5.15338371 4.86164696
66 2 10.47321654 6.38878392 5.62432912
67 1 13.07352815 1.78691815 1.06992379
68 2 12.17546625 1.45747810 1.10787717
69 2 13.48657403 1.44865381 1.86513742
70 1 13.02033284 1.73103100 5.57553192
71 2 13.47562206 1.45012453 6.36893825
72 2 13.05005963 2.68699545 5.60806339
73 1 9.14646308 4.61069005 7.90876100
74 2 9.15741506 3.65472561 7.87622954
75 2 9.60644600 4.88277224 7.11535468
76 1 9.19965839 4.51950575 3.40496018
77 2 8.30003193 4.84306295 3.36158489
78 2 9.61270428 4.85188723 2.60793924
79 1 10.45444173 5.49017734 1.14763785
80 2 10.03826670 5.16514943 0.34880961
81 2 11.34624535 5.14308871 1.11149178
82 1 10.49042678 0.81624656 1.12052830
83 2 10.02105646 1.16480591 0.36326804
84 2 13.90900733 1.14274519 4.12065244
85 1 14.36429654 0.86625086 3.32724612
86 2 13.91213646 1.15451091 8.62987518
87 2 13.94186325 5.14014728 7.11174007
88 1 14.36429654 0.88389943 7.83104695
89 2 13.06726987 2.66934687 10.14981760
90 2 12.18172453 1.44130024 10.15343220
91 1 14.35490913 5.47988234 7.90514640
92 2 15.25453559 5.15485443 7.86357841
93 2 14.35803827 7.28150764 7.87984415
94 1 9.17306074 1.85310031 7.91960483
95 2 9.59080033 1.50895311 7.12981311
96 2 10.02105646 1.16480591 9.39978656
97 1 1.29702667 9.11254722 3.32363151
98 2 1.75231588 8.83164075 4.11703784
99 2 1.32675345 10.06851167 3.35435567
100 1 5.30388468 11.89955126 1.10606987
101 2 5.25381851 10.94358681 1.10968447
102 2 4.39017712 12.18781131 1.10426256
103 1 6.53207037 12.81433569 3.40134557
104 2 7.43169683 12.49077850 3.35977758
105 2 6.11902448 12.47607135 2.60613194
106 1 5.19592951 11.84366411 5.61167800
107 2 5.67781638 12.18045773 6.36713095
108 2 5.67781638 12.17457487 4.85261044
109 1 2.58779506 8.19040921 5.57914653
110 2 3.48585695 8.51984927 5.61348530
111 2 2.17474918 8.53602713 6.37074555
112 1 2.60500531 12.78639212 5.60625609
113 2 2.64411950 13.74235656 5.61348530
114 2 3.52184201 12.50989779 5.60806339
115 1 5.25068938 9.14049080 1.16209628
116 2 4.35419206 8.81105075 1.12595021
117 2 5.66060613 8.80810932 0.36507535
118 1 5.19749408 9.08460365 5.66770441
119 2 5.65278329 8.79781432 4.87610539
120 2 5.22722086 10.04056809 5.62794373
121 1 1.32362432 11.96426270 7.90876100
122 2 1.33457629 11.00829825 7.87622954
123 2 1.78360724 12.23634488 7.11535468
124 1 1.37681962 11.87160768 3.31098038
125 2 0.47719316 12.19663559 3.35254837
126 2 1.78986551 12.21134274 4.10619401
127 1 2.68636283 12.76874354 1.05546536
128 2 2.65507148 13.72470799 1.08799683
129 2 2.22637991 12.48636635 1.84706438
130 1 2.66758802 8.16981921 1.12052830
131 2 2.19821769 8.51837855 0.36326804
132 2 2.19195942 8.51690784 1.87598124
133 1 6.48982704 8.14334635 3.41941861
134 2 7.38163066 8.49043498 3.38688714
135 2 6.07208745 8.48013998 2.62601228
136 1 6.48982704 8.16246564 7.92321943
137 2 6.07208745 8.49925927 7.13162041
138 2 7.38163066 8.50955427 7.89068797
139 1 6.53207037 12.83345498 7.81297391
140 2 6.12058905 12.49371993 8.60638023
141 2 7.43326140 12.51136850 7.85092729
142 1 1.35022197 9.20667295 7.82743234
143 2 0.45841835 8.86105504 7.85634920
144 2 1.76639699 8.86252575 8.61903136
145 1 9.09326778 9.18755367 3.36881410
146 2 9.56889638 8.84193575 2.61336115
147 2 9.56889638 8.84781861 4.12788166
148 1 13.12672345 11.89955126 1.10606987
149 2 13.07665728 10.94358681 1.10968447
150 2 12.21301588 12.18781131 1.10426256
151 1 14.43470209 12.81580641 3.35435567
152 2 13.95281522 12.48489564 4.11161592
153 2 13.95281522 12.47901278 2.59890273
154 1 13.09856123 11.84219339 5.56468810
155 2 12.20675761 12.18928202 5.59902687
156 2 13.51942995 12.18045773 6.35628712
157 1 10.41063383 8.19040921 5.57914653
158 2 11.30869572 8.51984927 5.61348530
159 2 9.99758794 8.53602713 6.37074555
160 1 10.50920160 12.78639212 5.65143868
161 2 10.04765411 12.50695636 4.86164696
162 2 10.47321654 13.74235656 5.62432912
163 1 12.99373519 9.14196151 1.11691369
164 2 13.47092835 8.80663860 0.35784613
165 2 13.47249292 8.79928503 1.87236664
166 1 13.02033284 9.08460365 5.66770441
167 2 13.47562206 8.79781432 4.87610539
168 2 13.05005963 10.04056809 5.62794373
169 1 9.11830087 11.89072697 7.86177111
170 2 9.60488144 12.22310845 7.10812546
171 2 9.60331687 12.21575488 8.62083866
172 1 9.14646308 11.94661412 3.40315287
173 2 9.15741506 10.99064968 3.37242871
174 2 9.60644600 12.21869631 2.60974655
175 1 10.50920160 12.76727283 1.14763785
176 2 10.05078325 12.49519064 0.35242422
177 2 10.47634567 13.72470799 1.12595021
178 1 10.38403618 8.24629637 1.12052830
179 2 10.42784407 7.29033192 1.11329908
180 2 11.29930831 8.52867356 1.11872099
181 1 14.28450359 8.21835279 3.37423601
182 2 14.33926346 7.26238835 3.36700680
183 2 15.19664659 8.51102498 3.37242871
184 1 14.36429654 8.23747208 7.92321943
185 2 13.91057189 8.51690784 7.12981311
186 2 13.47092835 8.80663860 9.39436465
187 1 14.35490913 12.83345498 7.81297391
188 2 13.94342782 12.49371993 8.60638023
189 2 15.25610016 12.51136850 7.85092729
190 1 9.11986543 9.13019580 7.82743234
191 2 9.15115679 10.08616024 7.86357841
192 2 9.57046095 8.84487718 8.62264597
193 1 1.35022197 1.83398102 12.45051521
194 2 1.76796156 1.49130453 11.66072349
195 2 0.45841835 1.48689239 12.42159835
196 1 5.19749408 4.47244288 10.14258838
197 2 5.67781638 4.80923651 10.89804133
198 2 5.67312267 4.81070723 9.38352083
199 1 6.58526567 5.38722732 12.34569160
200 2 6.12684732 5.10485013 13.13548331
201 2 6.55553889 6.34319177 12.37822306
202 1 5.30388468 4.56509790 14.64638921
203 2 5.25381851 3.60913346 14.65181112
204 2 4.39017712 4.85335795 14.64638921
205 1 2.66758802 0.83536585 14.66265494
206 2 2.19195942 1.18245448 15.41810789
207 2 2.19195942 1.17510091 13.90358739
208 1 2.68636283 5.43281947 14.59759201
209 2 2.65507148 6.38878392 14.63012348
210 2 2.22637991 5.15044228 15.38919103
211 1 5.27728703 1.71191171 10.15343220
212 2 4.35888576 1.44130024 10.15343220
213 2 5.24443111 2.66934687 10.14981760
214 1 5.25068938 1.80603744 14.61205044
215 2 5.66373527 1.46630239 15.40545677
216 2 4.35262749 1.47659739 14.65000382
217 1 1.32362432 4.61069005 16.85310703
218 2 1.33144716 3.65472561 16.88563850
219 2 1.78047810 4.88277224 17.64832066
220 1 1.32362432 4.59304148 12.34930620
221 2 1.33457629 3.63707703 12.38725958
222 2 1.78360724 4.87100652 13.14090523
223 1 2.63160296 5.49017734 10.09198388
224 2 2.21229880 5.15926657 10.88539020
225 2 3.52340658 5.14308871 10.12993726
226 1 2.63942580 0.89272372 10.20403671
227 2 2.19039485 1.17657162 9.40701577
228 2 6.09399140 1.12950876 11.65168697
229 1 6.56805543 0.78977370 12.40894723
230 2 6.09399140 1.13539162 13.16620748
231 2 8.28438625 1.47806810 12.40713992
232 1 6.54145778 0.88389943 16.86756546
233 2 6.08929770 1.15451091 17.66639370
234 2 8.28125712 1.50454096 16.92539918
235 1 6.53207037 5.47988234 16.94166491
236 2 6.11902448 5.14014728 16.14825859
237 2 7.43169683 5.15485443 16.90009693
238 1 1.35022197 1.85310031 16.86395085
239 2 0.45841835 1.50748239 16.89286771
240 2 1.76639699 1.50895311 17.65554988
241 1 9.19965839 1.75897458 12.40533262
242 2 9.15741506 2.71493902 12.40171801
243 2 10.01479819 1.16333519 10.91249976
244 1 13.02033284 4.47244288 10.14258838
245 2 13.50065514 4.80923651 10.89804133
246 2 13.49596144 4.81070723 9.38352083
247 1 14.35490913 5.46076305 12.34388429
248 2 15.25453559 5.13720585 12.38725958
249 2 13.94186325 5.12838156 13.14090523
250 1 13.04693049 4.56509790 14.60120662
251 2 13.50691341 4.84306295 15.39280564
252 2 13.05788247 3.60913346 14.64096730
253 1 10.46226457 0.91184301 14.70964484
254 2 10.00853992 1.19127877 13.91443121
255 2 9.59080033 1.50895311 16.16633162
256 1 10.45444173 5.50782591 14.68976450
257 2 10.03513757 5.17103229 13.89816548
258 2 11.34624535 5.16220800 14.65542573
259 1 13.10012580 1.71191171 10.15343220
260 2 13.91683016 1.12950876 11.65168697
261 2 13.91683016 1.13539162 13.16620748
262 1 13.07352815 1.80603744 14.61205044
263 2 13.48657403 1.46630239 15.40545677
264 2 12.17546625 1.47659739 14.65000382
265 1 9.14646308 4.61069005 16.94527952
266 2 9.15741506 3.65472561 16.91274805
267 2 9.60644600 4.88277224 16.15187319
268 1 9.19965839 4.51950575 12.44147869
269 2 8.30003193 4.84306295 12.39810340
270 2 9.61270428 4.85188723 11.64445776
271 1 10.45444173 5.49017734 10.18415637
272 2 10.03826670 5.16514943 9.38532813
273 2 11.34624535 5.14308871 10.14801029
274 1 10.49042678 0.81624656 10.15704681
275 2 10.42784407 7.29033192 10.14981760
276 2 11.29930831 8.52867356 10.15523951
277 1 14.39089419 0.78977370 12.40894723
278 2 13.91213646 1.15451091 17.66639370
279 2 15.24984189 5.14014728 16.89648232
280 1 14.36429654 0.88389943 16.86756546
281 2 14.35490913 6.36231105 16.90190423
282 2 13.89492622 8.49925927 16.16813893
283 1 14.32987605 5.40487590 16.89467502
284 2 15.20446942 8.50955427 16.92720648
285 2 13.47562206 8.79781432 13.91262391
286 1 9.17306074 1.85310031 16.95612334
287 2 6.51798926 7.28150764 16.90732614
288 2 10.42784407 7.30945121 14.65542573
289 1 1.29702667 9.11254722 12.45232251
290 2 1.75231588 8.82575789 11.66072349
291 2 1.32675345 10.06851167 12.41256183
292 1 5.27572246 11.82454482 10.09559849
293 2 5.69502662 12.16280916 10.88719751
294 2 4.38391884 12.17163345 10.12993726
295 1 6.58526567 12.74079997 12.34569160
296 2 6.12684732 12.45842278 13.13548331
297 2 6.55553889 13.69676441 12.37822306
298 1 5.30388468 11.91867055 14.64638921
299 2 5.25381851 10.96270610 14.65181112
300 2 4.39017712 12.20693059 14.64638921
301 1 2.58779506 8.19040921 14.70783754
302 2 2.17474918 8.52867356 13.91443121
303 2 3.48585695 8.51984927 14.67169146
304 1 2.68636283 12.78639212 14.59759201
305 2 2.65507148 13.74235656 14.63012348
306 2 2.22637991 12.50401493 15.38919103
307 1 5.19749408 9.06695507 10.19861480
308 2 5.22409173 10.02291952 10.16608333
309 2 5.64965416 8.78604860 9.40340117
310 1 5.17089642 9.15961009 14.65904034
311 2 5.64652502 8.81987503 15.41630059
312 2 5.64652502 8.81399217 13.90178008
313 1 1.37681962 11.89072697 16.85310703
314 2 1.78673637 12.21722560 17.65374257
315 2 0.47719316 12.21575488 16.89467502
316 1 1.37681962 11.87160768 12.34749890
317 2 0.47719316 12.19663559 12.38906688
318 2 1.78986551 12.21134274 13.14271253
319 1 2.71296048 12.84227927 10.13897377
320 2 2.22637991 12.50989779 10.89261942
321 2 2.22794448 12.51725136 9.37990622
322 1 2.56119741 8.24629637 10.15704681
323 2 2.60500531 7.29033192 10.14981760
324 2 3.47646955 8.52867356 10.15523951
325 1 6.48982704 8.14334635 12.45593712
326 2 7.38163066 8.49043498 12.42340566
327 2 6.07208745 8.48013998 11.66253080
328 1 6.46166482 8.23600136 16.91455536
329 2 7.37380782 8.53014427 16.91274805
330 2 9.56263811 8.85811361 17.66820100
331 1 6.61342789 12.83492570 16.89467502
332 2 6.13154102 12.49813207 16.13922207
333 2 6.13779930 12.49519064 17.65374257
334 1 1.29702667 9.13019580 16.95612334
335 2 1.75231588 8.84340647 16.16452432
336 2 1.32675345 10.08616024 16.91636266
337 1 9.09326778 9.18755367 12.40533262
338 2 9.56889638 8.84193575 11.64987967
339 2 9.56889638 8.84781861 13.16440017
340 1 13.12672345 11.89955126 10.14258838
341 2 13.07665728 10.94358681 10.14620299
342 2 12.21301588 12.18781131 10.14078108
343 1 14.40966901 12.74079997 12.43605678
344 2 13.94812152 12.45989349 11.64626506
345 2 14.37368395 13.69676441 12.40894723
346 1 13.09856123 11.84366411 14.69337911
347 2 13.51786539 12.17457487 13.89997278
348 2 12.20675761 12.18928202 14.65542573
349 1 10.38403618 8.26541566 14.66265494
350 2 11.29930831 8.54779285 14.66084764
351 2 9.56889638 8.85958433 16.15368050
352 1 10.53423468 12.86139856 14.64277460
353 2 10.05234781 12.52460493 13.88732165
354 2 10.05234781 12.53048779 15.40184216
355 1 12.99373519 9.14196151 10.15343220
356 2 13.47249292 8.79928503 10.90888515
357 2 15.19664659 8.51102498 12.40894723
358 1 13.02033284 9.08460365 14.70422293
359 2 13.05005963 10.04056809 14.66446225
360 2 14.33926346 7.26238835 12.40352531
361 1 9.22469147 11.96426270 16.89828962
362 2 8.30941934 12.24075703 16.89828962
363 2 9.18870641 11.00829825 16.90190423
364 1 9.22469147 11.94661412 12.39448880
365 2 8.30941934 12.22163774 12.39268149
366 2 9.18870641 10.99064968 12.39810340
367 1 10.50920160 12.76874354 10.09198388
368 2 10.47791024 13.72470799 10.12451534
369 2 10.04921868 12.48636635 10.88358290
370 1 10.38403618 8.24629637 10.15704681
371 2 6.53519950 14.63508028 7.86357841
372 2 10.45757086 14.66302386 14.66446225
373 1 14.28450359 8.21835279 12.41075453
374 2 13.95437979 12.49813207 16.13922207
375 2 13.96063806 12.49519064 17.65374257
376 1 14.31266581 8.16246564 16.95973795
377 2 14.35803827 14.63508028 16.90009693
378 2 6.53519950 14.63508028 16.90009693
379 1 14.43626666 12.83492570 16.89467502
380 2 14.35803827 14.63508028 7.86357841
381 2 14.35334457 14.61743171 3.36519950
382 1 9.09483235 9.20667295 16.90913345
383 2 2.63160296 14.64390457 10.15523951
384 2 6.53050580 14.61743171 3.36519950
