LAMMPS ice Ih (UMA) from ice 1c create_ice_structure(N=32)

96 atoms
2 atom types

0.0 10.130509814491 xlo xhi
0.0 10.130509814491 ylo yhi
0.0 10.130509814491 zlo zhi
0.000000000000 0.000000000000 0.000000000000 xy xz yz

Masses

1 15.9994  # O
2 1.008    # H

Atoms

1 1 10.07884421 0.00000000 0.00000000
2 2 7.17341400 2.11930265 0.42446836
3 2 9.70604145 2.94595225 2.10815909
4 1 2.58429305 2.53262745 0.00000000
5 2 2.11930265 2.10815909 0.42446836
6 2 3.37447282 3.37447282 0.85298893
7 1 0.00000000 2.48096185 2.53262745
8 2 0.42446836 2.94595225 2.95709581
9 2 0.84184537 1.69078209 1.67963853
10 1 3.79894118 3.79894118 1.31797933
11 2 3.37447282 3.37447282 0.85298893
12 2 4.22340954 4.22340954 0.85298893
13 1 3.79894118 1.26631373 3.85060678
14 2 3.37447282 0.84184537 3.38561638
15 2 4.22340954 1.69078209 3.38561638
16 1 1.21464813 3.79894118 3.79894118
17 2 1.67963853 3.37447282 4.22340954
18 2 1.67963853 4.22340954 3.37447282
19 1 5.06525491 10.07884421 0.00000000
20 2 4.21226598 9.28866445 0.84184537
21 2 4.21226598 8.43972773 1.69078209
22 1 7.59788236 2.58429305 0.00000000
23 2 7.17341400 2.11930265 0.42446836
24 2 8.43972773 3.37447282 0.85298893
25 1 7.59788236 0.05166560 2.53262745
26 2 6.75603700 0.84184537 1.67963853
27 2 8.43972773 0.84184537 3.38561638
28 1 5.06525491 2.48096185 2.53262745
29 2 4.64078655 2.94595225 2.10815909
30 2 5.48972327 2.94595225 2.95709581
31 1 6.33156863 1.26631373 1.21464813
32 2 6.75603700 0.84184537 1.67963853
33 2 5.90710027 1.69078209 1.67963853
34 1 8.86419609 3.79894118 1.31797933
35 2 8.43972773 3.37447282 0.85298893
36 2 9.28866445 4.22340954 0.85298893
37 1 8.86419609 1.26631373 3.85060678
38 2 8.43972773 0.84184537 3.38561638
39 2 9.28866445 1.69078209 3.38561638
40 1 6.33156863 3.79894118 3.74727558
41 2 6.75603700 3.37447282 4.21226598
42 2 5.90710027 4.22340954 4.21226598
43 1 0.00000000 5.06525491 0.05166560
44 2 0.84184537 5.90710027 0.85298893
45 2 1.69078209 6.75603700 0.85298893
46 1 2.48096185 7.59788236 0.00000000
47 2 2.94595225 8.02235072 0.42446836
48 2 1.69078209 6.75603700 0.85298893
49 1 2.53262745 5.06525491 2.58429305
50 2 2.95709581 4.64078655 2.11930265
51 2 2.10815909 5.48972327 2.11930265
52 1 1.26631373 6.33156863 1.31797933
53 2 1.69078209 6.75603700 0.85298893
54 2 0.84184537 5.90710027 0.85298893
55 1 3.74727558 8.86419609 1.26631373
56 2 4.21226598 8.43972773 1.69078209
57 2 4.21226598 9.28866445 0.84184537
58 1 2.53262745 2.58429305 5.06525491
59 2 2.95709581 2.11930265 4.64078655
60 2 2.10815909 2.11930265 5.48972327
61 1 2.48096185 0.00000000 7.59788236
62 2 2.94595225 0.42446836 8.02235072
63 2 1.69078209 0.85298893 6.75603700
64 1 0.00000000 2.58429305 7.59788236
65 2 0.42446836 2.11930265 7.17341400
66 2 0.84184537 3.37447282 8.45087129
67 1 1.26631373 1.31797933 6.33156863
68 2 1.69078209 0.85298893 6.75603700
69 2 0.84184537 0.85298893 5.90710027
70 1 3.79894118 3.79894118 6.38323423
71 2 3.37447282 3.37447282 5.91824383
72 2 4.22340954 4.22340954 5.91824383
73 1 3.79894118 1.21464813 8.86419609
74 2 3.37447282 1.67963853 9.28866445
75 2 4.22340954 1.67963853 8.43972773
76 1 1.26631373 3.79894118 8.91586169
77 2 0.84184537 3.37447282 8.45087129
78 2 1.69078209 4.22340954 8.45087129
79 1 7.54621676 2.53262745 5.06525491
80 2 8.01120716 2.10815909 4.64078655
81 2 8.01120716 2.95709581 5.48972327
82 1 5.06525491 2.48096185 7.59788236
83 2 4.64078655 2.94595225 7.17341400
84 2 5.48972327 2.94595225 8.02235072
85 1 6.33156863 1.21464813 6.33156863
86 2 6.75603700 1.67963853 5.90710027
87 2 5.90710027 1.67963853 6.75603700
88 1 8.81253049 3.79894118 6.33156863
89 2 9.27752089 3.37447282 6.75603700
90 2 9.27752089 4.22340954 5.90710027
91 1 2.53262745 5.06525491 7.64954796
92 2 2.95709581 4.64078655 7.18455756
93 2 2.10815909 5.48972327 7.18455756
94 1 3.79894118 6.33156863 8.91586169
95 2 4.22340954 6.75603700 8.45087129
96 2 3.37447282 5.90710027 8.45087129
