LAMMPS ice Ih (UMA) from generate_ice_ih 2x2x2

192 atoms
2 atom types

0.0 8.994000000000 xlo xhi
0.0 15.578000000000 ylo yhi
0.0 14.644000000000 zlo zhi
0.000000000000 0.000000000000 0.000000000000 xy xz yz

Masses

1 15.9994  # O
2 1.008    # H

Atoms

1 1 0.00000000 2.59633333 0.45542840
2 2 8.21177980 2.14472018 0.13855467
3 2 0.78222020 2.14472018 0.13855467
4 1 2.24850000 6.49083333 0.45542840
5 2 1.46627980 6.03922018 0.13855467
6 2 3.03072020 6.03922018 0.13855467
7 1 2.24850000 1.29816667 6.86657160
8 2 2.24850000 0.39493784 7.18344621
9 2 2.24850000 1.29816667 5.90937160
10 1 0.00000000 5.19266667 6.86657160
11 2 0.00000000 4.28943784 7.18344621
12 2 0.00000000 5.19266667 5.90937160
13 1 2.24850000 1.29816667 4.11642840
14 2 1.46627980 1.74977982 3.79955467
15 2 3.03072020 1.74977982 3.79955467
16 1 0.00000000 5.19266667 4.11642840
17 2 8.21177980 5.64427982 3.79955467
18 2 0.78222020 5.64427982 3.79955467
19 1 0.00000000 2.59633333 3.20557160
20 2 0.00000000 2.59633333 2.24837160
21 2 0.00000000 3.49956216 3.52244621
22 1 2.24850000 6.49083333 3.20557160
23 2 2.24850000 6.49083333 2.24837160
24 2 2.24850000 7.39406216 3.52244621
25 1 0.00000000 2.59633333 7.77742840
26 2 8.21177980 2.14472018 7.46055467
27 2 0.78222020 2.14472018 7.46055467
28 1 2.24850000 6.49083333 7.77742840
29 2 1.46627980 6.03922018 7.46055467
30 2 3.03072020 6.03922018 7.46055467
31 1 2.24850000 1.29816667 14.18857160
32 2 2.24850000 0.39493784 14.50544621
33 2 2.24850000 1.29816667 13.23137160
34 1 0.00000000 5.19266667 14.18857160
35 2 0.00000000 4.28943784 14.50544621
36 2 0.00000000 5.19266667 13.23137160
37 1 2.24850000 1.29816667 11.43842840
38 2 1.46627980 1.74977982 11.12155467
39 2 3.03072020 1.74977982 11.12155467
40 1 0.00000000 5.19266667 11.43842840
41 2 8.21177980 5.64427982 11.12155467
42 2 0.78222020 5.64427982 11.12155467
43 1 0.00000000 2.59633333 10.52757160
44 2 0.00000000 2.59633333 9.57037160
45 2 0.00000000 3.49956216 10.84444621
46 1 2.24850000 6.49083333 10.52757160
47 2 2.24850000 6.49083333 9.57037160
48 2 2.24850000 7.39406216 10.84444621
49 1 0.00000000 10.38533333 0.45542840
50 2 8.21177980 9.93372018 0.13855467
51 2 0.78222020 9.93372018 0.13855467
52 1 2.24850000 14.27983333 0.45542840
53 2 1.46627980 13.82822018 0.13855467
54 2 3.03072020 13.82822018 0.13855467
55 1 2.24850000 9.08716667 6.86657160
56 2 2.24850000 8.18393784 7.18344621
57 2 2.24850000 9.08716667 5.90937160
58 1 0.00000000 12.98166667 6.86657160
59 2 0.00000000 12.07843784 7.18344621
60 2 0.00000000 12.98166667 5.90937160
61 1 2.24850000 9.08716667 4.11642840
62 2 1.46627980 9.53877982 3.79955467
63 2 3.03072020 9.53877982 3.79955467
64 1 0.00000000 12.98166667 4.11642840
65 2 8.21177980 13.43327982 3.79955467
66 2 0.78222020 13.43327982 3.79955467
67 1 0.00000000 10.38533333 3.20557160
68 2 0.00000000 10.38533333 2.24837160
69 2 0.00000000 11.28856216 3.52244621
70 1 2.24850000 14.27983333 3.20557160
71 2 2.24850000 14.27983333 2.24837160
72 2 2.24850000 15.18306216 3.52244621
73 1 0.00000000 10.38533333 7.77742840
74 2 8.21177980 9.93372018 7.46055467
75 2 0.78222020 9.93372018 7.46055467
76 1 2.24850000 14.27983333 7.77742840
77 2 1.46627980 13.82822018 7.46055467
78 2 3.03072020 13.82822018 7.46055467
79 1 2.24850000 9.08716667 14.18857160
80 2 2.24850000 8.18393784 14.50544621
81 2 2.24850000 9.08716667 13.23137160
82 1 0.00000000 12.98166667 14.18857160
83 2 0.00000000 12.07843784 14.50544621
84 2 0.00000000 12.98166667 13.23137160
85 1 2.24850000 9.08716667 11.43842840
86 2 1.46627980 9.53877982 11.12155467
87 2 3.03072020 9.53877982 11.12155467
88 1 0.00000000 12.98166667 11.43842840
89 2 8.21177980 13.43327982 11.12155467
90 2 0.78222020 13.43327982 11.12155467
91 1 0.00000000 10.38533333 10.52757160
92 2 0.00000000 10.38533333 9.57037160
93 2 0.00000000 11.28856216 10.84444621
94 1 2.24850000 14.27983333 10.52757160
95 2 2.24850000 14.27983333 9.57037160
96 2 2.24850000 15.18306216 10.84444621
97 1 4.49700000 2.59633333 0.45542840
98 2 3.71477980 2.14472018 0.13855467
99 2 5.27922020 2.14472018 0.13855467
100 1 6.74550000 6.49083333 0.45542840
101 2 5.96327980 6.03922018 0.13855467
102 2 7.52772020 6.03922018 0.13855467
103 1 6.74550000 1.29816667 6.86657160
104 2 6.74550000 0.39493784 7.18344621
105 2 6.74550000 1.29816667 5.90937160
106 1 4.49700000 5.19266667 6.86657160
107 2 4.49700000 4.28943784 7.18344621
108 2 4.49700000 5.19266667 5.90937160
109 1 6.74550000 1.29816667 4.11642840
110 2 5.96327980 1.74977982 3.79955467
111 2 7.52772020 1.74977982 3.79955467
112 1 4.49700000 5.19266667 4.11642840
113 2 3.71477980 5.64427982 3.79955467
114 2 5.27922020 5.64427982 3.79955467
115 1 4.49700000 2.59633333 3.20557160
116 2 4.49700000 2.59633333 2.24837160
117 2 4.49700000 3.49956216 3.52244621
118 1 6.74550000 6.49083333 3.20557160
119 2 6.74550000 6.49083333 2.24837160
120 2 6.74550000 7.39406216 3.52244621
121 1 4.49700000 2.59633333 7.77742840
122 2 3.71477980 2.14472018 7.46055467
123 2 5.27922020 2.14472018 7.46055467
124 1 6.74550000 6.49083333 7.77742840
125 2 5.96327980 6.03922018 7.46055467
126 2 7.52772020 6.03922018 7.46055467
127 1 6.74550000 1.29816667 14.18857160
128 2 6.74550000 0.39493784 14.50544621
129 2 6.74550000 1.29816667 13.23137160
130 1 4.49700000 5.19266667 14.18857160
131 2 4.49700000 4.28943784 14.50544621
132 2 4.49700000 5.19266667 13.23137160
133 1 6.74550000 1.29816667 11.43842840
134 2 5.96327980 1.74977982 11.12155467
135 2 7.52772020 1.74977982 11.12155467
136 1 4.49700000 5.19266667 11.43842840
137 2 3.71477980 5.64427982 11.12155467
138 2 5.27922020 5.64427982 11.12155467
139 1 4.49700000 2.59633333 10.52757160
140 2 4.49700000 2.59633333 9.57037160
141 2 4.49700000 3.49956216 10.84444621
142 1 6.74550000 6.49083333 10.52757160
143 2 6.74550000 6.49083333 9.57037160
144 2 6.74550000 7.39406216 10.84444621
145 1 4.49700000 10.38533333 0.45542840
146 2 3.71477980 9.93372018 0.13855467
147 2 5.27922020 9.93372018 0.13855467
148 1 6.74550000 14.27983333 0.45542840
149 2 5.96327980 13.82822018 0.13855467
150 2 7.52772020 13.82822018 0.13855467
151 1 6.74550000 9.08716667 6.86657160
152 2 6.74550000 8.18393784 7.18344621
153 2 6.74550000 9.08716667 5.90937160
154 1 4.49700000 12.98166667 6.86657160
155 2 4.49700000 12.07843784 7.18344621
156 2 4.49700000 12.98166667 5.90937160
157 1 6.74550000 9.08716667 4.11642840
158 2 5.96327980 9.53877982 3.79955467
159 2 7.52772020 9.53877982 3.79955467
160 1 4.49700000 12.98166667 4.11642840
161 2 3.71477980 13.43327982 3.79955467
162 2 5.27922020 13.43327982 3.79955467
163 1 4.49700000 10.38533333 3.20557160
164 2 4.49700000 10.38533333 2.24837160
165 2 4.49700000 11.28856216 3.52244621
166 1 6.74550000 14.27983333 3.20557160
167 2 6.74550000 14.27983333 2.24837160
168 2 6.74550000 15.18306216 3.52244621
169 1 4.49700000 10.38533333 7.77742840
170 2 3.71477980 9.93372018 7.46055467
171 2 5.27922020 9.93372018 7.46055467
172 1 6.74550000 14.27983333 7.77742840
173 2 5.96327980 13.82822018 7.46055467
174 2 7.52772020 13.82822018 7.46055467
175 1 6.74550000 9.08716667 14.18857160
176 2 6.74550000 8.18393784 14.50544621
177 2 6.74550000 9.08716667 13.23137160
178 1 4.49700000 12.98166667 14.18857160
179 2 4.49700000 12.07843784 14.50544621
180 2 4.49700000 12.98166667 13.23137160
181 1 6.74550000 9.08716667 11.43842840
182 2 5.96327980 9.53877982 11.12155467
183 2 7.52772020 9.53877982 11.12155467
184 1 4.49700000 12.98166667 11.43842840
185 2 3.71477980 13.43327982 11.12155467
186 2 5.27922020 13.43327982 11.12155467
187 1 4.49700000 10.38533333 10.52757160
188 2 4.49700000 10.38533333 9.57037160
189 2 4.49700000 11.28856216 10.84444621
190 1 6.74550000 14.27983333 10.52757160
191 2 6.74550000 14.27983333 9.57037160
192 2 6.74550000 15.18306216 10.84444621
