LAMMPS ice Ih (UMA) from ice.cif

96 atoms
2 atom types

0.0 9.856159230668 xlo xhi
0.0 9.264920970116 ylo yhi
0.0 11.385299895347 zlo zhi
0.000000000000 0.000000000000 0.000000000000 xy xz yz

Masses

1 15.9994  # O
2 1.008    # H

Atoms

1 1 0.86734201 1.10808455 2.12221990
2 2 0.84073038 1.71030441 2.11994284
3 2 0.29075670 0.93112456 2.12335843
4 1 3.27421610 2.81746247 0.69678035
5 2 3.57680018 3.02962916 1.17268589
6 2 3.57384334 3.03055565 0.21859776
7 1 4.14845742 3.39374055 2.08464841
8 2 3.85967195 3.21585407 2.58218602
9 2 4.12973072 3.99596041 2.10514195
10 1 3.32349689 2.82765388 3.50553384
11 2 2.76169582 3.04630601 3.52716591
12 2 3.58862758 3.04074706 4.00420997
13 1 1.63020874 0.52717400 3.57270711
14 2 1.37000613 0.74026719 3.07289244
15 2 2.19595228 0.73470823 3.54993651
16 1 1.69230254 3.42246181 3.50325678
17 2 1.67259022 4.02468167 3.52375032
18 2 1.40253146 3.24457532 4.00193291
19 1 3.27421610 1.07936329 0.67400975
20 2 3.29294280 1.68158316 0.69450329
21 2 3.56103033 0.90240330 1.17496295
22 1 3.27421610 1.09048120 3.51236502
23 2 3.56103033 0.91352121 4.01217968
24 2 3.29294280 1.69270106 3.53285856
25 1 0.83383107 2.90455272 4.92414220
26 2 0.83875915 2.30233286 4.94463574
27 2 1.12163092 3.07595376 5.42509540
28 1 0.81608998 2.84618372 2.11538872
29 2 1.11965969 3.05464444 1.63834465
30 2 1.11965969 3.05835041 2.59129426
31 1 1.64105051 3.41134390 0.69336476
32 2 1.66569091 4.01356376 0.69791888
33 2 2.21862144 3.23623689 0.69450329
34 1 1.63020874 0.51512961 0.67742534
35 2 1.37000613 0.73285525 1.17496295
36 2 2.19595228 0.72266384 0.69791888
37 1 4.12086017 0.54570385 2.09603371
38 2 3.83404594 0.71988436 2.59584838
39 2 5.21883631 0.93112456 2.12335843
40 1 4.12086017 0.55682175 4.93325044
41 2 3.83601717 0.72729630 5.43648070
42 2 5.21686508 0.94780142 4.96968340
43 1 4.09917662 3.40485846 4.95032839
44 2 4.67871879 3.23808988 4.95146692
45 2 4.11494648 4.00800481 4.95488251
46 1 0.85058654 1.16738004 4.98903841
47 2 1.11374599 0.95058089 4.49150081
48 2 0.28878547 0.94780142 4.96968340
49 1 5.79542163 1.10808455 2.12221990
50 2 5.76881000 1.71030441 2.11994284
51 2 6.30892752 0.73285525 1.18179413
52 1 8.21905118 2.86471356 0.72524360
53 2 8.22792173 2.26249370 0.70247300
54 2 8.50586542 3.03889408 0.22429041
55 1 9.04302609 3.44006516 2.14271344
56 2 9.60975525 3.23623689 2.11652725
57 2 8.78282349 3.22697197 1.64176024
58 1 8.25157651 2.82858037 3.56359887
59 2 8.51572158 3.03704109 3.06378420
60 2 7.68977543 3.04630601 3.53968974
61 1 6.55828835 0.52717400 3.57270711
62 2 6.29808575 0.74026719 3.07289244
63 2 7.12403189 0.73470823 3.54993651
64 1 6.62038216 3.42246181 3.56018328
65 2 6.32962546 3.24642831 3.06264567
66 2 6.59771299 4.02468167 3.54310533
67 1 8.23580665 1.12568790 0.67400975
68 2 7.67006311 0.91815367 0.69791888
69 2 8.49600926 0.91259472 1.17496295
70 1 8.20229571 1.09048120 3.51236502
71 2 8.48910995 0.91352121 4.01217968
72 2 8.22102241 1.69270106 3.53285856
73 1 5.76191069 2.90455272 4.98220723
74 2 5.76881000 2.30233286 4.96171369
75 2 6.05168177 3.07595376 4.48239257
76 1 5.79542163 2.84711021 2.14499050
77 2 5.22869247 3.05093848 2.11766578
78 2 6.05562423 3.05649743 1.64289877
79 1 6.58588560 3.45859500 0.72296654
80 2 6.32371176 3.25384024 0.21973629
81 2 7.14768667 3.23994286 0.70019594
82 1 6.60855476 0.51420311 0.70588859
83 2 6.31286999 0.73378174 0.22884453
84 2 8.76212556 0.71988436 2.59584838
85 1 9.04893979 0.54570385 2.09603371
86 2 8.76409679 0.72729630 5.43648070
87 2 8.78282349 3.23808988 4.48011551
88 1 9.04893979 0.55682175 4.93325044
89 2 8.23186419 1.68158316 6.39398442
90 2 7.67400558 0.90796226 6.39626148
91 1 9.04302609 3.45210955 4.97993017
92 2 9.60975525 3.24735480 4.95374398
93 2 9.04499733 4.58706237 4.96399075
94 1 5.77866616 1.16738004 4.98903841
95 2 6.04182561 0.95058089 4.49150081
96 2 6.31286999 0.73378174 5.92149448
