LAMMPS ice Ih (UMA) from generate_ice_ih 1x1x1

24 atoms
2 atom types

0.0 4.497000000000 xlo xhi
0.0 7.789000000000 ylo yhi
0.0 7.322000000000 zlo zhi
0.000000000000 0.000000000000 0.000000000000 xy xz yz

Masses

1 15.9994  # O
2 1.008    # H

Atoms

1 1 0.00000000 2.59633333 0.45542840
2 2 3.71477980 2.14472018 0.13855467
3 2 0.78222020 2.14472018 0.13855467
4 1 2.24850000 6.49083333 0.45542840
5 2 1.46627980 6.03922018 0.13855467
6 2 3.03072020 6.03922018 0.13855467
7 1 2.24850000 1.29816667 6.86657160
8 2 2.24850000 0.39493784 7.18344621
9 2 2.24850000 1.29816667 5.90937160
10 1 0.00000000 5.19266667 6.86657160
11 2 0.00000000 4.28943784 7.18344621
12 2 0.00000000 5.19266667 5.90937160
13 1 2.24850000 1.29816667 4.11642840
14 2 1.46627980 1.74977982 3.79955467
15 2 3.03072020 1.74977982 3.79955467
16 1 0.00000000 5.19266667 4.11642840
17 2 3.71477980 5.64427982 3.79955467
18 2 0.78222020 5.64427982 3.79955467
19 1 0.00000000 2.59633333 3.20557160
20 2 0.00000000 2.59633333 2.24837160
21 2 0.00000000 3.49956216 3.52244621
22 1 2.24850000 6.49083333 3.20557160
23 2 2.24850000 6.49083333 2.24837160
24 2 2.24850000 7.39406216 3.52244621
