384
Lattice="15.6456775311 0 0  0.0000000000 14.7071452944 0  0.0000000000 0.0000000000 18.0730370308" Properties=species:S:1:pos:R:3 step=0
O  1.37682000  1.75897000  3.36881000
H  1.33458000  2.71494000  3.36520000
H  0.46154700  1.47807000  3.37062000
O  5.19749000  4.47244000  1.10607000
H  5.67782000  4.80924000  1.86152000
H  5.67312000  4.81071000  0.34700200
O  6.58527000  5.38723000  3.30917000
H  6.12685000  5.10485000  4.09896000
H  6.55554000  6.34319000  3.34170000
O  5.27572000  4.48862000  5.56469000
H  4.38392000  4.83571000  5.59903000
H  5.69659000  4.82689000  6.35629000
O  2.58780000  0.83683700  5.67132000
H  2.17475000  1.17510000  4.87791000
H  3.48586000  1.16628000  5.63517000
O  2.68636000  5.43282000  5.56107000
H  2.65507000  6.38878000  5.59360000
H  2.22638000  5.15044000  6.35267000
O  5.19749000  1.71338000  1.06992000
H  5.22722000  2.66935000  1.10246000
H  5.65278000  1.43248000  1.86514000
O  5.19749000  1.73103000  5.57553000
H  5.65278000  1.45012000  6.36894000
H  5.22722000  2.68700000  5.60806000
O  1.32362000  4.61069000  7.81659000
H  1.33145000  3.65473000  7.84912000
H  1.78048000  4.88277000  8.61180000
O  1.29546000  4.51804000  3.35797000
H  1.77735000  4.84895000  2.60071000
H  1.77735000  4.85483000  4.11342000
O  2.60501000  5.41517000  1.10065000
H  2.64412000  6.37114000  1.10788000
H  3.52184000  5.13721000  1.10246000
O  2.58780000  0.81771700  1.07535000
H  2.17475000  1.16334000  1.86514000
H  3.48586000  1.14716000  1.10788000
O  6.54146000  0.86625100  3.32725000
H  6.08617000  1.14275000  4.12065000
H  8.28439000  1.47807000  3.37062000
O  6.54146000  0.88389900  7.83105000
H  6.08930000  1.15451000  8.62988000
H  8.28126000  1.50454000  7.88888000
O  6.50704000  5.40488000  7.85816000
H  7.42700000  5.14015000  7.85996000
H  6.53207000  6.36231000  7.86539000
O  1.35022000  1.85310000  7.91960000
H  1.76796000  1.50895000  7.12981000
H  0.45841800  1.50454000  7.88888000
O  9.19966000  1.75897000  3.36881000
H  9.15742000  2.71494000  3.36520000
H  10.01480000  1.16334000  1.87598000
O  13.04690000  4.54745000  1.15125000
H  13.06100000  3.59148000  1.11511000
H  13.50220000  4.82394000  0.35603900
O  14.35490000  5.46076000  3.40135000
H  15.25450000  5.13721000  3.35978000
H  13.94190000  5.12250000  2.60613000
O  13.09860000  4.49009000  5.65686000
H  13.51790000  4.82100000  4.86345000
H  12.20680000  4.83571000  5.61891000
O  10.41060000  0.83683700  5.67132000
H  9.99759000  1.17510000  4.87791000
H  11.30870000  1.16628000  5.63517000
O  10.50920000  5.43282000  5.65144000
H  10.04770000  5.15338000  4.86165000
H  10.47320000  6.38878000  5.62433000
O  13.07350000  1.78692000  1.06992000
H  12.17550000  1.45748000  1.10788000
H  13.48660000  1.44865000  1.86514000
O  13.02030000  1.73103000  5.57553000
H  13.47560000  1.45012000  6.36894000
H  13.05010000  2.68700000  5.60806000
O  9.14646000  4.61069000  7.90876000
H  9.15742000  3.65473000  7.87623000
H  9.60645000  4.88277000  7.11535000
O  9.19966000  4.51951000  3.40496000
H  8.30003000  4.84306000  3.36158000
H  9.61270000  4.85189000  2.60794000
O  10.45440000  5.49018000  1.14764000
H  10.03830000  5.16515000  0.34881000
H  11.34620000  5.14309000  1.11149000
O  10.49040000  0.81624700  1.12053000
H  10.02110000  1.16481000  0.36326800
H  13.90900000  1.14275000  4.12065000
O  14.36430000  0.86625100  3.32725000
H  13.91210000  1.15451000  8.62988000
H  13.94190000  5.14015000  7.11174000
O  14.36430000  0.88389900  7.83105000
H  13.06730000  2.66935000  10.14980000
H  12.18170000  1.44130000  10.15340000
O  14.35490000  5.47988000  7.90515000
H  15.25450000  5.15485000  7.86358000
H  14.35800000  7.28151000  7.87984000
O  9.17306000  1.85310000  7.91960000
H  9.59080000  1.50895000  7.12981000
H  10.02110000  1.16481000  9.39979000
O  1.29703000  9.11255000  3.32363000
H  1.75232000  8.83164000  4.11704000
H  1.32675000  10.06850000  3.35436000
O  5.30388000  11.89960000  1.10607000
H  5.25382000  10.94360000  1.10968000
H  4.39018000  12.18780000  1.10426000
O  6.53207000  12.81430000  3.40135000
H  7.43170000  12.49080000  3.35978000
H  6.11902000  12.47610000  2.60613000
O  5.19593000  11.84370000  5.61168000
H  5.67782000  12.18050000  6.36713000
H  5.67782000  12.17460000  4.85261000
O  2.58780000  8.19041000  5.57915000
H  3.48586000  8.51985000  5.61349000
H  2.17475000  8.53603000  6.37075000
O  2.60501000  12.78640000  5.60626000
H  2.64412000  13.74240000  5.61349000
H  3.52184000  12.50990000  5.60806000
O  5.25069000  9.14049000  1.16210000
H  4.35419000  8.81105000  1.12595000
H  5.66061000  8.80811000  0.36507500
O  5.19749000  9.08460000  5.66770000
H  5.65278000  8.79781000  4.87611000
H  5.22722000  10.04060000  5.62794000
O  1.32362000  11.96430000  7.90876000
H  1.33458000  11.00830000  7.87623000
H  1.78361000  12.23630000  7.11535000
O  1.37682000  11.87160000  3.31098000
H  0.47719300  12.19660000  3.35255000
H  1.78987000  12.21130000  4.10619000
O  2.68636000  12.76870000  1.05547000
H  2.65507000  13.72470000  1.08800000
H  2.22638000  12.48640000  1.84706000
O  2.66759000  8.16982000  1.12053000
H  2.19822000  8.51838000  0.36326800
H  2.19196000  8.51691000  1.87598000
O  6.48983000  8.14335000  3.41942000
H  7.38163000  8.49043000  3.38689000
H  6.07209000  8.48014000  2.62601000
O  6.48983000  8.16247000  7.92322000
H  6.07209000  8.49926000  7.13162000
H  7.38163000  8.50955000  7.89069000
O  6.53207000  12.83350000  7.81297000
H  6.12059000  12.49370000  8.60638000
H  7.43326000  12.51140000  7.85093000
O  1.35022000  9.20667000  7.82743000
H  0.45841800  8.86106000  7.85635000
H  1.76640000  8.86253000  8.61903000
O  9.09327000  9.18755000  3.36881000
H  9.56890000  8.84194000  2.61336000
H  9.56890000  8.84782000  4.12788000
O  13.12670000  11.89960000  1.10607000
H  13.07670000  10.94360000  1.10968000
H  12.21300000  12.18780000  1.10426000
O  14.43470000  12.81580000  3.35436000
H  13.95280000  12.48490000  4.11162000
H  13.95280000  12.47900000  2.59890000
O  13.09860000  11.84220000  5.56469000
H  12.20680000  12.18930000  5.59903000
H  13.51940000  12.18050000  6.35629000
O  10.41060000  8.19041000  5.57915000
H  11.30870000  8.51985000  5.61349000
H  9.99759000  8.53603000  6.37075000
O  10.50920000  12.78640000  5.65144000
H  10.04770000  12.50700000  4.86165000
H  10.47320000  13.74240000  5.62433000
O  12.99370000  9.14196000  1.11691000
H  13.47090000  8.80664000  0.35784600
H  13.47250000  8.79929000  1.87237000
O  13.02030000  9.08460000  5.66770000
H  13.47560000  8.79781000  4.87611000
H  13.05010000  10.04060000  5.62794000
O  9.11830000  11.89070000  7.86177000
H  9.60488000  12.22310000  7.10813000
H  9.60332000  12.21580000  8.62084000
O  9.14646000  11.94660000  3.40315000
H  9.15742000  10.99060000  3.37243000
H  9.60645000  12.21870000  2.60975000
O  10.50920000  12.76730000  1.14764000
H  10.05080000  12.49520000  0.35242400
H  10.47630000  13.72470000  1.12595000
O  10.38400000  8.24630000  1.12053000
H  10.42780000  7.29033000  1.11330000
H  11.29930000  8.52867000  1.11872000
O  14.28450000  8.21835000  3.37424000
H  14.33930000  7.26239000  3.36701000
H  15.19660000  8.51102000  3.37243000
O  14.36430000  8.23747000  7.92322000
H  13.91060000  8.51691000  7.12981000
H  13.47090000  8.80664000  9.39436000
O  14.35490000  12.83350000  7.81297000
H  13.94340000  12.49370000  8.60638000
H  15.25610000  12.51140000  7.85093000
O  9.11987000  9.13020000  7.82743000
H  9.15116000  10.08620000  7.86358000
H  9.57046000  8.84488000  8.62265000
O  1.35022000  1.83398000  12.45050000
H  1.76796000  1.49130000  11.66070000
H  0.45841800  1.48689000  12.42160000
O  5.19749000  4.47244000  10.14260000
H  5.67782000  4.80924000  10.89800000
H  5.67312000  4.81071000  9.38352000
O  6.58527000  5.38723000  12.34570000
H  6.12685000  5.10485000  13.13550000
H  6.55554000  6.34319000  12.37820000
O  5.30388000  4.56510000  14.64640000
H  5.25382000  3.60913000  14.65180000
H  4.39018000  4.85336000  14.64640000
O  2.66759000  0.83536600  14.66270000
H  2.19196000  1.18245000  15.41810000
H  2.19196000  1.17510000  13.90360000
O  2.68636000  5.43282000  14.59760000
H  2.65507000  6.38878000  14.63010000
H  2.22638000  5.15044000  15.38920000
O  5.27729000  1.71191000  10.15340000
H  4.35889000  1.44130000  10.15340000
H  5.24443000  2.66935000  10.14980000
O  5.25069000  1.80604000  14.61210000
H  5.66374000  1.46630000  15.40550000
H  4.35263000  1.47660000  14.65000000
O  1.32362000  4.61069000  16.85310000
H  1.33145000  3.65473000  16.88560000
H  1.78048000  4.88277000  17.64830000
O  1.32362000  4.59304000  12.34930000
H  1.33458000  3.63708000  12.38730000
H  1.78361000  4.87101000  13.14090000
O  2.63160000  5.49018000  10.09200000
H  2.21230000  5.15927000  10.88540000
H  3.52341000  5.14309000  10.12990000
O  2.63943000  0.89272400  10.20400000
H  2.19039000  1.17657000  9.40702000
H  6.09399000  1.12951000  11.65170000
O  6.56806000  0.78977400  12.40890000
H  6.09399000  1.13539000  13.16620000
H  8.28439000  1.47807000  12.40710000
O  6.54146000  0.88389900  16.86760000
H  6.08930000  1.15451000  17.66640000
H  8.28126000  1.50454000  16.92540000
O  6.53207000  5.47988000  16.94170000
H  6.11902000  5.14015000  16.14830000
H  7.43170000  5.15485000  16.90010000
O  1.35022000  1.85310000  16.86400000
H  0.45841800  1.50748000  16.89290000
H  1.76640000  1.50895000  17.65550000
O  9.19966000  1.75897000  12.40530000
H  9.15742000  2.71494000  12.40170000
H  10.01480000  1.16334000  10.91250000
O  13.02030000  4.47244000  10.14260000
H  13.50070000  4.80924000  10.89800000
H  13.49600000  4.81071000  9.38352000
O  14.35490000  5.46076000  12.34390000
H  15.25450000  5.13721000  12.38730000
H  13.94190000  5.12838000  13.14090000
O  13.04690000  4.56510000  14.60120000
H  13.50690000  4.84306000  15.39280000
H  13.05790000  3.60913000  14.64100000
O  10.46230000  0.91184300  14.70960000
H  10.00850000  1.19128000  13.91440000
H  9.59080000  1.50895000  16.16630000
O  10.45440000  5.50783000  14.68980000
H  10.03510000  5.17103000  13.89820000
H  11.34620000  5.16221000  14.65540000
O  13.10010000  1.71191000  10.15340000
H  13.91680000  1.12951000  11.65170000
H  13.91680000  1.13539000  13.16620000
O  13.07350000  1.80604000  14.61210000
H  13.48660000  1.46630000  15.40550000
H  12.17550000  1.47660000  14.65000000
O  9.14646000  4.61069000  16.94530000
H  9.15742000  3.65473000  16.91270000
H  9.60645000  4.88277000  16.15190000
O  9.19966000  4.51951000  12.44150000
H  8.30003000  4.84306000  12.39810000
H  9.61270000  4.85189000  11.64450000
O  10.45440000  5.49018000  10.18420000
H  10.03830000  5.16515000  9.38533000
H  11.34620000  5.14309000  10.14800000
O  10.49040000  0.81624700  10.15700000
H  10.42780000  7.29033000  10.14980000
H  11.29930000  8.52867000  10.15520000
O  14.39090000  0.78977400  12.40890000
H  13.91210000  1.15451000  17.66640000
H  15.24980000  5.14015000  16.89650000
O  14.36430000  0.88389900  16.86760000
H  14.35490000  6.36231000  16.90190000
H  13.89490000  8.49926000  16.16810000
O  14.32990000  5.40488000  16.89470000
H  15.20450000  8.50955000  16.92720000
H  13.47560000  8.79781000  13.91260000
O  9.17306000  1.85310000  16.95610000
H  6.51799000  7.28151000  16.90730000
H  10.42780000  7.30945000  14.65540000
O  1.29703000  9.11255000  12.45230000
H  1.75232000  8.82576000  11.66070000
H  1.32675000  10.06850000  12.41260000
O  5.27572000  11.82450000  10.09560000
H  5.69503000  12.16280000  10.88720000
H  4.38392000  12.17160000  10.12990000
O  6.58527000  12.74080000  12.34570000
H  6.12685000  12.45840000  13.13550000
H  6.55554000  13.69680000  12.37820000
O  5.30388000  11.91870000  14.64640000
H  5.25382000  10.96270000  14.65180000
H  4.39018000  12.20690000  14.64640000
O  2.58780000  8.19041000  14.70780000
H  2.17475000  8.52867000  13.91440000
H  3.48586000  8.51985000  14.67170000
O  2.68636000  12.78640000  14.59760000
H  2.65507000  13.74240000  14.63010000
H  2.22638000  12.50400000  15.38920000
O  5.19749000  9.06696000  10.19860000
H  5.22409000  10.02290000  10.16610000
H  5.64965000  8.78605000  9.40340000
O  5.17090000  9.15961000  14.65900000
H  5.64653000  8.81988000  15.41630000
H  5.64653000  8.81399000  13.90180000
O  1.37682000  11.89070000  16.85310000
H  1.78674000  12.21720000  17.65370000
H  0.47719300  12.21580000  16.89470000
O  1.37682000  11.87160000  12.34750000
H  0.47719300  12.19660000  12.38910000
H  1.78987000  12.21130000  13.14270000
O  2.71296000  12.84230000  10.13900000
H  2.22638000  12.50990000  10.89260000
H  2.22794000  12.51730000  9.37991000
O  2.56120000  8.24630000  10.15700000
H  2.60501000  7.29033000  10.14980000
H  3.47647000  8.52867000  10.15520000
O  6.48983000  8.14335000  12.45590000
H  7.38163000  8.49043000  12.42340000
H  6.07209000  8.48014000  11.66250000
O  6.46166000  8.23600000  16.91460000
H  7.37381000  8.53014000  16.91270000
H  9.56264000  8.85811000  17.66820000
O  6.61343000  12.83490000  16.89470000
H  6.13154000  12.49810000  16.13920000
H  6.13780000  12.49520000  17.65370000
O  1.29703000  9.13020000  16.95610000
H  1.75232000  8.84341000  16.16450000
H  1.32675000  10.08620000  16.91640000
O  9.09327000  9.18755000  12.40530000
H  9.56890000  8.84194000  11.64990000
H  9.56890000  8.84782000  13.16440000
O  13.12670000  11.89960000  10.14260000
H  13.07670000  10.94360000  10.14620000
H  12.21300000  12.18780000  10.14080000
O  14.40970000  12.74080000  12.43610000
H  13.94810000  12.45990000  11.64630000
H  14.37370000  13.69680000  12.40890000
O  13.09860000  11.84370000  14.69340000
H  13.51790000  12.17460000  13.90000000
H  12.20680000  12.18930000  14.65540000
O  10.38400000  8.26542000  14.66270000
H  11.29930000  8.54779000  14.66080000
H  9.56890000  8.85958000  16.15370000
O  10.53420000  12.86140000  14.64280000
H  10.05230000  12.52460000  13.88730000
H  10.05230000  12.53050000  15.40180000
O  12.99370000  9.14196000  10.15340000
H  13.47250000  8.79929000  10.90890000
H  15.19660000  8.51102000  12.40890000
O  13.02030000  9.08460000  14.70420000
H  13.05010000  10.04060000  14.66450000
H  14.33930000  7.26239000  12.40350000
O  9.22469000  11.96430000  16.89830000
H  8.30942000  12.24080000  16.89830000
H  9.18871000  11.00830000  16.90190000
O  9.22469000  11.94660000  12.39450000
H  8.30942000  12.22160000  12.39270000
H  9.18871000  10.99060000  12.39810000
O  10.50920000  12.76870000  10.09200000
H  10.47790000  13.72470000  10.12450000
H  10.04920000  12.48640000  10.88360000
O  10.38400000  8.24630000  10.15700000
H  6.53520000  14.63510000  7.86358000
H  10.45760000  14.66300000  14.66450000
O  14.28450000  8.21835000  12.41080000
H  13.95440000  12.49810000  16.13920000
H  13.96060000  12.49520000  17.65370000
O  14.31270000  8.16247000  16.95970000
H  14.35800000  14.63510000  16.90010000
H  6.53520000  14.63510000  16.90010000
O  14.43630000  12.83490000  16.89470000
H  14.35800000  14.63510000  7.86358000
H  14.35330000  14.61740000  3.36520000
O  9.09483000  9.20667000  16.90910000
H  2.63160000  14.64390000  10.15520000
H  6.53051000  14.61740000  3.36520000
384
Lattice="15.6456775311 0 0  0.0000000000 14.7071452944 0  0.0000000000 0.0000000000 18.0730370308" Properties=species:S:1:pos:R:3 step=1
O  1.37698000  1.75848000  3.36938000
H  1.33394000  2.71591000  3.36314000
H  0.46295900  1.47759000  3.36970000
O  5.19774000  4.47241000  1.10684000
H  5.67847000  4.81020000  1.86255000
H  5.67362000  4.81053000  0.34720500
O  6.58539000  5.38745000  3.30881000
H  6.12640000  5.10674000  4.10032000
H  6.55485000  6.34448000  3.33915000
O  5.27599000  4.48870000  5.56491000
H  4.38649000  4.83610000  5.59887000
H  5.69854000  4.82623000  6.35645000
O  2.58738000  0.83724500  5.67114000
H  2.17498000  1.17428000  4.87558000
H  3.48415000  1.16574000  5.63509000
O  2.68663000  5.43307000  5.56079000
H  2.65424000  6.38794000  5.59346000
H  2.22504000  5.15041000  6.35482000
O  5.19726000  1.71306000  1.07051000
H  5.22624000  2.67175000  1.10284000
H  5.65167000  1.43194000  1.86680000
O  5.19753000  1.73108000  5.57551000
H  5.65392000  1.44995000  6.37074000
H  5.22709000  2.68652000  5.60758000
O  1.32438000  4.61116000  7.81684000
H  1.33166000  3.65569000  7.84881000
H  1.77934000  4.88425000  8.61335000
O  1.29580000  4.51729000  3.35811000
H  1.77803000  4.84782000  2.59972000
H  1.77507000  4.85503000  4.11341000
O  2.60475000  5.41474000  1.10125000
H  2.64304000  6.37028000  1.10810000
H  3.52206000  5.13960000  1.09956000
O  2.58760000  0.81785500  1.07533000
H  2.17437000  1.16239000  1.86444000
H  3.48330000  1.14796000  1.10695000
O  6.54151000  0.86566700  3.32764000
H  6.08723000  1.14165000  4.12189000
H  8.28683000  1.48042000  3.37034000
O  6.54090000  0.88369200  7.83079000
H  6.08831000  1.15633000  8.62832000
H  8.28257000  1.50332000  7.89019000
O  6.50700000  5.40572000  7.85832000
H  7.42704000  5.14065000  7.85968000
H  6.53205000  6.36396000  7.86780000
O  1.34990000  1.85246000  7.91931000
H  1.76749000  1.50968000  7.12904000
H  0.45743300  1.50336000  7.89084000
O  9.19977000  1.75875000  3.36831000
H  9.15603000  2.71456000  3.36414000
H  10.01470000  1.16099000  1.87608000
O  13.04700000  4.54790000  1.15076000
H  13.06130000  3.58990000  1.11625000
H  13.50070000  4.82412000  0.35575600
O  14.35580000  5.46094000  3.40137000
H  15.25270000  5.13757000  3.35987000
H  13.94110000  5.12043000  2.60541000
O  13.09860000  4.49084000  5.65698000
H  13.51580000  4.82152000  4.86231000
H  12.20880000  4.83464000  5.62061000
O  10.41100000  0.83744000  5.67098000
H  9.99582000  1.17643000  4.87661000
H  11.30980000  1.16588000  5.63580000
O  10.50860000  5.43301000  5.65146000
H  10.04970000  5.15533000  4.86316000
H  10.47320000  6.38744000  5.62514000
O  13.07380000  1.78702000  1.07020000
H  12.17460000  1.45525000  1.10757000
H  13.48570000  1.44721000  1.86275000
O  13.02020000  1.73132000  5.57617000
H  13.47430000  1.44959000  6.36812000
H  13.05020000  2.68757000  5.61133000
O  9.14618000  4.61044000  7.90841000
H  9.15543000  3.65315000  7.87462000
H  9.60710000  4.87990000  7.11808000
O  9.19982000  4.51939000  3.40451000
H  8.29990000  4.84344000  3.35949000
H  9.61329000  4.85020000  2.61003000
O  10.45370000  5.48997000  1.14728000
H  10.03810000  5.16522000  0.34708200
H  11.34760000  5.14256000  1.11331000
O  10.48970000  0.81629700  1.12068000
H  10.02250000  1.16485000  0.36263300
H  13.90820000  1.14229000  4.12187000
O  14.36410000  0.86615000  3.32818000
H  13.91050000  1.15394000  8.62989000
H  13.94050000  5.14114000  7.11086000
O  14.36460000  0.88372000  7.83100000
H  13.06670000  2.67167000  10.14920000
H  12.18110000  1.44325000  10.15180000
O  14.35540000  5.48066000  7.90536000
H  15.25500000  5.15536000  7.86304000
H  14.35510000  7.28223000  7.87941000
O  9.17307000  1.85273000  7.91970000
H  9.59030000  1.50960000  7.12904000
H  10.01970000  1.16368000  9.39757000
O  1.29734000  9.11260000  3.32459000
H  1.75169000  8.82849000  4.11677000
H  1.32683000  10.06940000  3.35304000
O  5.30438000  11.89970000  1.10628000
H  5.25227000  10.94440000  1.10775000
H  4.39002000  12.18670000  1.10599000
O  6.53186000  12.81440000  3.40126000
H  7.43226000  12.49090000  3.35949000
H  6.11657000  12.47410000  2.60590000
O  5.19573000  11.84290000  5.61189000
H  5.67673000  12.17810000  6.36555000
H  5.67706000  12.17620000  4.85338000
O  2.58782000  8.19035000  5.57868000
H  3.48813000  8.51902000  5.61437000
H  2.17459000  8.53727000  6.37188000
O  2.60469000  12.78610000  5.60632000
H  2.64398000  13.74300000  5.61369000
H  3.52295000  12.50980000  5.61102000
O  5.25067000  9.14055000  1.16258000
H  4.35474000  8.81134000  1.12592000
H  5.65855000  8.80860000  0.36558800
O  5.19773000  9.08422000  5.66769000
H  5.65183000  8.79883000  4.87679000
H  5.22634000  10.04070000  5.62969000
O  1.32314000  11.96420000  7.90888000
H  1.33469000  11.00870000  7.87506000
H  1.78325000  12.23870000  7.11442000
O  1.37701000  11.87170000  3.31070000
H  0.47922100  12.19790000  3.35209000
H  1.78956000  12.21310000  4.10730000
O  2.68622000  12.76860000  1.05455000
H  2.65310000  13.72450000  1.08885000
H  2.22607000  12.48680000  1.84531000
O  2.66778000  8.17000000  1.12061000
H  2.19762000  8.51889000  0.36261500
H  2.19251000  8.51512000  1.87945000
O  6.49036000  8.14321000  3.41904000
H  7.38092000  8.49112000  3.38603000
H  6.07179000  8.48098000  2.62464000
O  6.48912000  8.16331000  7.92342000
H  6.07091000  8.50099000  7.13176000
H  7.38184000  8.50621000  7.88877000
O  6.53225000  12.83370000  7.81342000
H  6.12074000  12.49630000  8.60735000
H  7.43423000  12.51140000  7.85182000
O  1.35045000  9.20625000  7.82720000
H  0.45827300  8.86000000  7.85558000
H  1.76659000  8.86111000  8.61893000
O  9.09307000  9.18797000  3.36845000
H  9.56680000  8.84155000  2.61362000
H  9.56847000  8.84882000  4.12891000
O  13.12690000  11.89930000  1.10531000
H  13.07720000  10.94550000  1.11300000
H  12.21170000  12.18560000  1.10307000
O  14.43540000  12.81540000  3.35422000
H  13.95300000  12.48460000  4.11064000
H  13.95410000  12.47860000  2.59905000
O  13.09840000  11.84180000  5.56407000
H  12.20650000  12.18950000  5.60035000
H  13.51890000  12.18070000  6.35595000
O  10.41020000  8.19096000  5.57929000
H  11.30930000  8.51792000  5.61142000
H  9.99683000  8.53433000  6.36960000
O  10.50950000  12.78650000  5.65137000
H  10.04820000  12.50820000  4.85935000
H  10.47390000  13.74340000  5.62531000
O  12.99370000  9.14160000  1.11661000
H  13.47010000  8.80845000  0.35848600
H  13.47110000  8.79855000  1.87146000
O  13.02020000  9.08483000  5.66767000
H  13.47530000  8.79914000  4.87538000
H  13.05240000  10.04180000  5.63095000
O  9.11792000  11.89050000  7.86109000
H  9.60434000  12.22120000  7.10885000
H  9.60319000  12.21360000  8.62110000
O  9.14566000  11.94630000  3.40320000
H  9.15653000  10.99280000  3.37279000
H  9.60689000  12.21890000  2.60762000
O  10.50920000  12.76690000  1.14756000
H  10.05060000  12.49330000  0.35269900
H  10.47680000  13.72450000  1.12487000
O  10.38400000  8.24617000  1.12066000
H  10.42850000  7.29238000  1.11618000
H  11.29940000  8.52858000  1.12053000
O  14.28390000  8.21832000  3.37445000
H  14.33860000  7.25954000  3.36726000
H  15.19600000  8.51272000  3.37474000
O  14.36380000  8.23777000  7.92359000
H  13.91340000  8.51823000  7.12833000
H  13.47220000  8.80803000  9.39576000
O  14.35460000  12.83380000  7.81316000
H  13.94530000  12.49160000  8.60540000
H  15.25430000  12.51040000  7.85025000
O  9.11895000  9.12982000  7.82715000
H  9.15125000  10.08830000  7.86686000
H  9.57010000  8.84400000  8.62483000
O  1.35014000  1.83388000  12.45080000
H  1.76575000  1.49269000  11.66130000
H  0.45949800  1.48768000  12.42080000
O  5.19751000  4.47260000  10.14290000
H  5.67691000  4.80917000  10.89910000
H  5.67460000  4.81168000  9.38242000
O  6.58557000  5.38774000  12.34520000
H  6.12873000  5.10668000  13.13450000
H  6.55679000  6.34525000  12.37710000
O  5.30370000  4.56483000  14.64600000
H  5.25160000  3.60824000  14.65100000
H  4.39025000  4.85399000  14.64820000
O  2.66775000  0.83500900  14.66240000
H  2.19078000  1.18172000  15.42060000
H  2.19063000  1.17761000  13.90600000
O  2.68703000  5.43242000  14.59810000
H  2.65427000  6.38854000  14.63070000
H  2.22536000  5.15080000  15.38820000
O  5.27736000  1.71200000  10.15380000
H  4.35858000  1.44235000  10.15370000
H  5.24610000  2.67044000  10.14990000
O  5.25081000  1.80576000  14.61250000
H  5.66642000  1.46716000  15.40430000
H  4.35153000  1.47669000  14.64810000
O  1.32393000  4.61058000  16.85290000
H  1.33166000  3.65393000  16.88650000
H  1.78225000  4.88453000  17.64920000
O  1.32385000  4.59291000  12.34920000
H  1.33362000  3.63611000  12.38420000
H  1.78703000  4.87618000  13.14010000
O  2.63137000  5.49077000  10.09150000
H  2.21177000  5.16179000  10.88460000
H  3.52440000  5.14713000  10.12940000
O  2.63956000  0.89300400  10.20390000
H  2.19036000  1.17743000  9.40777000
H  6.09520000  1.13115000  11.65250000
O  6.56840000  0.78981100  12.40860000
H  6.09419000  1.13614000  13.16850000
H  8.28487000  1.47493000  12.40650000
O  6.54202000  0.88352000  16.86740000
H  6.09382000  1.15450000  17.66730000
H  8.28049000  1.50368000  16.92500000
O  6.53194000  5.47976000  16.94180000
H  6.11690000  5.13772000  16.14860000
H  7.43302000  5.15566000  16.90200000
O  1.35049000  1.85334000  16.86410000
H  0.45819000  1.50787000  16.89010000
H  1.76641000  1.50608000  17.65530000
O  9.19948000  1.75928000  12.40560000
H  9.15798000  2.71640000  12.40230000
H  10.01190000  1.16287000  10.91190000
O  13.02000000  4.47246000  10.14200000
H  13.50010000  4.81090000  10.89880000
H  13.49670000  4.81251000  9.38114000
O  14.35490000  5.46075000  12.34390000
H  15.25470000  5.13831000  12.38780000
H  13.93930000  5.12558000  13.14170000
O  13.04690000  4.56531000  14.60130000
H  13.50470000  4.84394000  15.39280000
H  13.05890000  3.60945000  14.63900000
O  10.46250000  0.91133300  14.70980000
H  10.00950000  1.19178000  13.91320000
H  9.59015000  1.50664000  16.16490000
O  10.45450000  5.50744000  14.68960000
H  10.03430000  5.17062000  13.89850000
H  11.34540000  5.16358000  14.65340000
O  13.10060000  1.71189000  10.15340000
H  13.91520000  1.12988000  11.65550000
H  13.91760000  1.13799000  13.16660000
O  13.07390000  1.80590000  14.61210000
H  13.48860000  1.46396000  15.40680000
H  12.17740000  1.47846000  14.65030000
O  9.14641000  4.61088000  16.94610000
H  9.15570000  3.65500000  16.91010000
H  9.60622000  4.88447000  16.14990000
O  9.20008000  4.51950000  12.44160000
H  8.30241000  4.84064000  12.39820000
H  9.61496000  4.84991000  11.64330000
O  10.45440000  5.48992000  10.18450000
H  10.03980000  5.16545000  9.38520000
H  11.34730000  5.14256000  10.15080000
O  10.49030000  0.81618700  10.15680000
H  10.42740000  7.28849000  10.15080000
H  11.29870000  8.52776000  10.15560000
O  14.39090000  0.78943000  12.40860000
H  13.91150000  1.15472000  17.66700000
H  15.25350000  5.13975000  16.89490000
O  14.36420000  0.88400300  16.86720000
H  14.35520000  6.36322000  16.90330000
H  13.89250000  8.49883000  16.16980000
O  14.33050000  5.40515000  16.89440000
H  15.20490000  8.50920000  16.92850000
H  13.47770000  8.79912000  13.91530000
O  9.17248000  1.85306000  16.95590000
H  6.51655000  7.28017000  16.90760000
H  10.42810000  7.30872000  14.65650000
O  1.29731000  9.11212000  12.45280000
H  1.75361000  8.82636000  11.66110000
H  1.32604000  10.06770000  12.41140000
O  5.27577000  11.82380000  10.09500000
H  5.69357000  12.16500000  10.88930000
H  4.38384000  12.16980000  10.13100000
O  6.58531000  12.74040000  12.34540000
H  6.12710000  12.45930000  13.13800000
H  6.55557000  13.69670000  12.37620000
O  5.30383000  11.91870000  14.64630000
H  5.25406000  10.96220000  14.65240000
H  4.39250000  12.20560000  14.64800000
O  2.58734000  8.18970000  14.70760000
H  2.17412000  8.52875000  13.91460000
H  3.48491000  8.51822000  14.67140000
O  2.68663000  12.78630000  14.59780000
H  2.65501000  13.74320000  14.63250000
H  2.22321000  12.50320000  15.38830000
O  5.19839000  9.06654000  10.19920000
H  5.22548000  10.02480000  10.16420000
H  5.64618000  8.78681000  9.40498000
O  5.17066000  9.15939000  14.65860000
H  5.64534000  8.81907000  15.41480000
H  5.64508000  8.81358000  13.90160000
O  1.37709000  11.89130000  16.85270000
H  1.78548000  12.21860000  17.65400000
H  0.47805100  12.21590000  16.89440000
O  1.37700000  11.87160000  12.34740000
H  0.47631200  12.20080000  12.38870000
H  1.79217000  12.21150000  13.14240000
O  2.71330000  12.84250000  10.13890000
H  2.22616000  12.51180000  10.88910000
H  2.22538000  12.51900000  9.37852000
O  2.56077000  8.24594000  10.15680000
H  2.60421000  7.29236000  10.14970000
H  3.47684000  8.52626000  10.15530000
O  6.48967000  8.14360000  12.45600000
H  7.38079000  8.49154000  12.42500000
H  6.07126000  8.47840000  11.66510000
O  6.46164000  8.23595000  16.91420000
H  7.37331000  8.52869000  16.91320000
H  9.56047000  8.85909000  17.66740000
O  6.61378000  12.83520000  16.89470000
H  6.13219000  12.49810000  16.14060000
H  6.13859000  12.49430000  17.65470000
O  1.29679000  9.13008000  16.95650000
H  1.75156000  8.84442000  16.16510000
H  1.32831000  10.08570000  16.91610000
O  9.09416000  9.18778000  12.40500000
H  9.57067000  8.84117000  11.65120000
H  9.56747000  8.84750000  13.16660000
O  13.12640000  11.89970000  10.14280000
H  13.07640000  10.94420000  10.14740000
H  12.21300000  12.18840000  10.14080000
O  14.40950000  12.74160000  12.43600000
H  13.94870000  12.45820000  11.64660000
H  14.37410000  13.69590000  12.40840000
O  13.09840000  11.84410000  14.69340000
H  13.51590000  12.17690000  13.89840000
H  12.20430000  12.18900000  14.65360000
O  10.38390000  8.26462000  14.66240000
H  11.30090000  8.54861000  14.66070000
H  9.57016000  8.85914000  16.15280000
O  10.53420000  12.86210000  14.64350000
H  10.05240000  12.52510000  13.88590000
H  10.05310000  12.52880000  15.40210000
O  12.99350000  9.14222000  10.15350000
H  13.47100000  8.79783000  10.90910000
H  15.19790000  8.51113000  12.40830000
O  13.02000000  9.08476000  14.70420000
H  13.05300000  10.04190000  14.66710000
H  14.33840000  7.26004000  12.40280000
O  9.22457000  11.96440000  16.89840000
H  8.30935000  12.23890000  16.90200000
H  9.18893000  11.00880000  16.90300000
O  9.22488000  11.94670000  12.39460000
H  8.30815000  12.22250000  12.39200000
H  9.18702000  10.99170000  12.39710000
O  10.50900000  12.76810000  10.09190000
H  10.47640000  13.72430000  10.12620000
H  10.04700000  12.48600000  10.88210000
O  10.38410000  8.24617000  10.15740000
H  6.53619000  14.63490000  7.86371000
H  10.45710000  14.66160000  14.66350000
O  14.28490000  8.21862000  12.41080000
H  13.95430000  12.49640000  16.14130000
H  13.96310000  12.49920000  17.65160000