ITEM: TIMESTEP
100
ITEM: NUMBER OF ATOMS
192
ITEM: BOX BOUNDS xy xz yz pp pp pp
0.0000000000000000e+00 8.9939999999999998e+00 0.0000000000000000e+00
0.0000000000000000e+00 1.5577999999999999e+01 0.0000000000000000e+00
0.0000000000000000e+00 1.4644000000000000e+01 0.0000000000000000e+00
ITEM: ATOMS id type mass x y z
1 1 15.9994 0.156594 2.53719 0.364109
2 2 1.008 8.36681 2.02732 0.0491498
3 2 1.008 0.978362 2.0158 0.15401
4 1 15.9994 2.40867 6.44414 0.368224
5 2 1.008 1.63013 5.91655 0.128987
6 2 1.008 3.21584 5.90779 0.178889
7 1 15.9994 2.41424 1.1754 6.89631
8 2 1.008 2.40159 0.255627 7.2378
9 2 1.008 2.29496 1.17747 5.90845
10 1 15.9994 0.167856 5.06606 6.91417
11 2 1.008 0.230587 4.1192 7.20847
12 2 1.008 0.111608 5.03178 5.94543
13 1 15.9994 2.08746 1.3517 4.00732
14 2 1.008 1.2853 1.85615 3.77795
15 2 1.008 2.85517 1.88294 3.75535
16 1 15.9994 8.84728 5.24477 4.00394
17 2 1.008 8.01777 5.7472 3.82929
18 2 1.008 0.605176 5.79097 3.80411
19 1 15.9994 8.8275 2.71915 3.2606
20 2 1.008 8.90558 2.80199 2.29467
21 2 1.008 8.80423 3.66583 3.58983
22 1 15.9994 2.08882 6.62198 3.24753
23 2 1.008 2.21861 6.6324 2.30933
24 2 1.008 2.084 7.56061 3.53535
25 1 15.9994 0.169987 2.56367 7.67729
26 2 1.008 8.37351 2.03665 7.41222
27 2 1.008 0.948926 2.04832 7.53585
28 1 15.9994 2.40937 6.42755 7.67412
29 2 1.008 1.64122 5.87308 7.39624
30 2 1.008 3.17191 5.9036 7.49601
31 1 15.9994 2.40435 1.15921 14.2447
32 2 1.008 2.38435 0.202358 14.5304
33 2 1.008 2.3217 1.19543 13.2196
34 1 15.9994 0.158865 5.06696 14.2282
35 2 1.008 0.153647 4.0971 14.507
36 2 1.008 -0.00628264 5.06622 13.2509
37 1 15.9994 2.10245 1.32686 11.3425
38 2 1.008 1.31843 1.85402 11.1784
39 2 1.008 2.91445 1.92494 11.0817
40 1 15.9994 8.82947 5.23259 11.3241
41 2 1.008 8.02942 5.80227 11.1238
42 2 1.008 0.651334 5.75787 11.1242
43 1 15.9994 8.83303 2.74744 10.575
44 2 1.008 8.93859 2.76447 9.60278
45 2 1.008 8.8331 3.70286 10.9161
46 1 15.9994 2.08337 6.60459 10.5619
47 2 1.008 2.18309 6.66077 9.59647
48 2 1.008 2.07507 7.5411 10.9219
49 1 15.9994 0.156589 10.3344 0.334429
50 2 1.008 8.34778 9.78868 0.0806716
51 2 1.008 0.942817 9.75459 0.182695
52 1 15.9994 2.4037 14.2463 0.337589
53 2 1.008 1.63216 13.6574 0.129901
54 2 1.008 3.17886 13.7028 0.163025
55 1 15.9994 2.43423 8.96155 6.90778
56 2 1.008 2.36689 8.0154 7.21291
57 2 1.008 2.286 8.88893 5.94029
58 1 15.9994 0.163017 12.8707 6.91396
59 2 1.008 0.118863 11.9143 7.19102
60 2 1.008 0.114088 12.8071 5.97091
61 1 15.9994 2.10294 9.14762 4.00226
62 2 1.008 1.27232 9.68315 3.80858
63 2 1.008 2.90372 9.66503 3.77445
64 1 15.9994 8.82677 13.029 4.01227
65 2 1.008 8.07577 13.6086 3.87466
66 2 1.008 0.631301 13.5341 3.7861
67 1 15.9994 8.83964 10.5172 3.25524
68 2 1.008 8.91711 10.4804 2.2807
69 2 1.008 8.81387 11.4484 3.49353
70 1 15.9994 2.08254 14.4168 3.26115
71 2 1.008 2.16178 14.4267 2.28053
72 2 1.008 2.09819 15.3653 3.6222
73 1 15.9994 0.147334 10.332 7.66442
74 2 1.008 8.33966 9.76829 7.38974
75 2 1.008 0.954811 9.75707 7.5571
76 1 15.9994 2.40844 14.2299 7.66043
77 2 1.008 1.62984 13.7028 7.36843
78 2 1.008 3.21839 13.6663 7.54867
79 1 15.9994 2.39414 8.95201 14.2221
80 2 1.008 2.42222 8.00547 14.497
81 2 1.008 2.34268 8.92729 13.2796
82 1 15.9994 0.145593 12.8524 14.2342
83 2 1.008 0.193273 11.9037 14.5218
84 2 1.008 0.041496 12.8263 13.2842
85 1 15.9994 2.09283 9.131 11.3552
86 2 1.008 1.25969 9.64313 11.1569
87 2 1.008 2.83944 9.69541 11.0693
88 1 15.9994 8.84961 13.0229 11.3312
89 2 1.008 8.03123 13.5966 11.1447
90 2 1.008 0.610235 13.6121 11.0463
91 1 15.9994 8.84784 10.5343 10.5749
92 2 1.008 8.95399 10.5477 9.60083
93 2 1.008 8.77031 11.4893 10.8575
94 1 15.9994 2.08956 14.3999 10.5678
95 2 1.008 2.18064 14.4389 9.59539
96 2 1.008 2.05191 15.3363 10.8219
97 1 15.9994 4.65713 2.55296 0.373543
98 2 1.008 3.87888 1.94801 0.0956893
99 2 1.008 5.45618 2.0429 0.141773
100 1 15.9994 6.90934 6.44948 0.354734
101 2 1.008 6.09822 5.92797 0.0570166
102 2 1.008 7.70247 5.89126 0.217808
103 1 15.9994 6.90391 1.16675 6.90296
104 2 1.008 6.92588 0.22763 7.212
105 2 1.008 6.74341 1.0992 5.93977
106 1 15.9994 4.65431 5.04342 6.91272
107 2 1.008 4.63351 4.06708 7.16813
108 2 1.008 4.54532 5.07928 5.9592
109 1 15.9994 6.59643 1.34254 4.00041
110 2 1.008 5.82302 1.87414 3.85196
111 2 1.008 7.37388 1.91707 3.79351
112 1 15.9994 4.3388 5.23221 4.01307
113 2 1.008 3.54538 5.78545 3.84872
114 2 1.008 5.1456 5.77605 3.84178
115 1 15.9994 4.33633 2.72727 3.25849
116 2 1.008 4.45174 2.75232 2.28884
117 2 1.008 4.28494 3.68311 3.56449
118 1 15.9994 6.59035 6.61121 3.24714
119 2 1.008 6.66379 6.66674 2.29279
120 2 1.008 6.56037 7.57064 3.58902
121 1 15.9994 4.63837 2.55028 7.67373
122 2 1.008 3.8712 2.01787 7.39477
123 2 1.008 5.45346 2.07439 7.48198
124 1 15.9994 6.90203 6.4501 7.66584
125 2 1.008 6.16065 5.92183 7.40404
126 2 1.008 7.70805 5.95323 7.51188
127 1 15.9994 6.90494 1.16573 14.2063
128 2 1.008 6.85965 0.21436 14.5361
129 2 1.008 6.79539 1.16621 13.2334
130 1 15.9994 4.66465 5.06995 14.234
131 2 1.008 4.65102 4.12296 14.5226
132 2 1.008 4.57016 5.00444 13.3108
133 1 15.9994 6.60692 1.33954 11.3238
134 2 1.008 5.77805 1.87844 11.134
135 2 1.008 7.36288 1.90612 11.0504
136 1 15.9994 4.32758 5.25826 11.3361
137 2 1.008 3.52171 5.80808 11.1573
138 2 1.008 5.12878 5.7056 11.0312
139 1 15.9994 4.33957 2.73218 10.5804
140 2 1.008 4.45189 2.80618 9.6221
141 2 1.008 4.35885 3.67559 10.895
142 1 15.9994 6.59043 6.60879 10.5624
143 2 1.008 6.69017 6.61344 9.60187
144 2 1.008 6.5909 7.54273 10.8723
145 1 15.9994 4.64512 10.3519 0.341218
146 2 1.008 3.83433 9.79395 0.112147
147 2 1.008 5.44562 9.82953 0.200455
148 1 15.9994 6.90624 14.2306 0.33005
149 2 1.008 6.11956 13.7348 0.177793
150 2 1.008 7.67269 13.6484 0.14636
151 1 15.9994 6.92525 8.94884 6.90478
152 2 1.008 6.9138 8.00565 7.17762
153 2 1.008 6.84466 8.92398 5.95105
154 1 15.9994 4.65514 12.8441 6.89251
155 2 1.008 4.64855 11.9073 7.23342
156 2 1.008 4.5358 12.832 5.93815
157 1 15.9994 6.5859 9.14521 4.01374
158 2 1.008 5.79593 9.629 3.78009
159 2 1.008 7.3628 9.64015 3.72833
160 1 15.9994 4.35647 13.0321 4.00801
161 2 1.008 3.56432 13.5829 3.77656
162 2 1.008 5.13891 13.5918 3.78329
163 1 15.9994 4.33567 10.5065 3.24027
164 2 1.008 4.41789 10.5752 2.29197
165 2 1.008 4.30517 11.4511 3.52907
166 1 15.9994 6.58204 14.4176 3.24581
167 2 1.008 6.68117 14.4651 2.27839
168 2 1.008 6.63628 15.3745 3.61458
169 1 15.9994 4.64202 10.3315 7.65315
170 2 1.008 3.86443 9.7548 7.43735
171 2 1.008 5.4431 9.77103 7.50365
172 1 15.9994 6.88058 14.2287 7.67267
173 2 1.008 6.09604 13.733 7.42216
174 2 1.008 7.69468 13.7207 7.44091
175 1 15.9994 6.90825 8.94667 14.2257
176 2 1.008 6.91112 7.96797 14.5315
177 2 1.008 6.82146 8.92818 13.2427
178 1 15.9994 4.6583 12.8493 14.2347
179 2 1.008 4.67449 11.9429 14.5991
180 2 1.008 4.5471 12.8269 13.2928
181 1 15.9994 6.58044 9.13143 11.3383
182 2 1.008 5.7655 9.59671 11.1588
183 2 1.008 7.34853 9.71446 11.1335
184 1 15.9994 4.33753 13.0325 11.3412
185 2 1.008 3.59992 13.601 11.1195
186 2 1.008 5.14924 13.5924 11.124
187 1 15.9994 4.32951 10.5243 10.5721
188 2 1.008 4.48683 10.4871 9.59933
189 2 1.008 4.29139 11.4512 10.8529
190 1 15.9994 6.56315 14.4002 10.564
191 2 1.008 6.70059 14.4799 9.65328
192 2 1.008 6.57831 15.3383 10.924
ITEM: TIMESTEP
200
ITEM: NUMBER OF ATOMS
192
ITEM: BOX BOUNDS xy xz yz pp pp pp
0.0000000000000000e+00 8.9939999999999998e+00 0.0000000000000000e+00
0.0000000000000000e+00 1.5577999999999999e+01 0.0000000000000000e+00
0.0000000000000000e+00 1.4644000000000000e+01 0.0000000000000000e+00
ITEM: ATOMS id type mass x y z
1 1 15.9994 0.17297 2.50526 0.400427
2 2 1.008 8.43463 2.00839 -0.0383728
3 2 1.008 1.0057 2.02098 0.151934
4 1 15.9994 2.44492 6.42568 0.41467
5 2 1.008 1.63212 5.93175 0.223072
6 2 1.008 3.19609 5.8408 0.174651
7 1 15.9994 2.43415 1.22478 6.85104
8 2 1.008 2.507 0.28051 7.1305
9 2 1.008 2.25228 1.14925 5.88462
10 1 15.9994 0.209773 5.08065 6.95724
11 2 1.008 0.307745 4.16275 7.31547
12 2 1.008 0.201849 4.99882 5.98428
13 1 15.9994 2.06249 1.37807 4.00296
14 2 1.008 1.27047 1.84469 3.66566
15 2 1.008 2.85408 1.87916 3.72379
16 1 15.9994 8.8595 5.26514 3.98675
17 2 1.008 8.04717 5.78353 3.80578
18 2 1.008 0.574826 5.86115 3.77937
19 1 15.9994 8.80209 2.70775 3.32104
20 2 1.008 8.75407 2.8846 2.36724
21 2 1.008 8.80772 3.59809 3.75795
22 1 15.9994 2.10142 6.61767 3.26191
23 2 1.008 2.24111 6.56184 2.3265
24 2 1.008 2.09161 7.56548 3.48663
25 1 15.9994 0.218301 2.61786 7.70237
26 2 1.008 8.43939 2.14504 7.3274
27 2 1.008 0.969602 2.05559 7.5414
28 1 15.9994 2.43157 6.34607 7.68234
29 2 1.008 1.66305 5.84034 7.35874
30 2 1.008 3.23816 5.90136 7.51344
31 1 15.9994 2.38542 1.13575 14.2861
32 2 1.008 2.28212 0.149251 14.42
33 2 1.008 2.40636 1.26476 13.2677
34 1 15.9994 0.138461 5.07984 14.2128
35 2 1.008 0.154841 4.10471 14.4517
36 2 1.008 -0.269572 5.19009 13.3328
37 1 15.9994 2.12989 1.27521 11.3642
38 2 1.008 1.35074 1.82913 11.2614
39 2 1.008 2.96847 1.83163 11.0874
40 1 15.9994 8.77197 5.2334 11.2966
41 2 1.008 8.06637 5.88998 11.0266
42 2 1.008 0.66734 5.65551 11.2617
43 1 15.9994 8.82787 2.81652 10.5981
44 2 1.008 8.97123 2.91357 9.64557
45 2 1.008 8.7959 3.78218 10.9178
46 1 15.9994 2.06512 6.55565 10.5471
47 2 1.008 2.17094 6.74981 9.59664
48 2 1.008 2.08647 7.45581 10.9774
49 1 15.9994 0.187511 10.3038 0.28793
50 2 1.008 8.32014 9.83398 0.0271953
51 2 1.008 0.928038 9.67938 0.147606
52 1 15.9994 2.40374 14.2708 0.309032
53 2 1.008 1.60968 13.6896 0.235037
54 2 1.008 3.21256 13.7845 0.148161
55 1 15.9994 2.50549 8.96221 6.89429
56 2 1.008 2.41079 8.08326 7.32063
57 2 1.008 2.215 8.89779 5.96149
58 1 15.9994 0.184674 12.9317 6.93626
59 2 1.008 0.0749157 12.0061 7.28089
60 2 1.008 0.236319 12.849 5.97573
61 1 15.9994 2.1097 9.18513 3.97581
62 2 1.008 1.33164 9.76333 3.72901
63 2 1.008 2.91087 9.74414 3.79814
64 1 15.9994 8.77871 13.0397 4.02114
65 2 1.008 8.10738 13.7084 3.85048
66 2 1.008 0.644996 13.4684 3.87745
67 1 15.9994 8.83299 10.5275 3.27898
68 2 1.008 8.85989 10.3609 2.32174
69 2 1.008 8.72855 11.459 3.43276
70 1 15.9994 2.06774 14.4195 3.31261
71 2 1.008 2.08651 14.5856 2.35807
72 2 1.008 2.10278 15.3696 3.66078
73 1 15.9994 0.122633 10.2993 7.64334
74 2 1.008 8.29287 9.77783 7.35635
75 2 1.008 0.88695 9.69227 7.70774
76 1 15.9994 2.45113 14.2273 7.60563
77 2 1.008 1.67314 13.7328 7.261
78 2 1.008 3.21317 13.5934 7.59829
79 1 15.9994 2.35271 8.93053 14.1903
80 2 1.008 2.48165 8.00411 14.4862
81 2 1.008 2.39486 9 13.2319
82 1 15.9994 0.101324 12.8505 14.2551
83 2 1.008 0.203948 11.8986 14.5375
84 2 1.008 0.00139638 12.8376 13.3015
85 1 15.9994 2.06549 9.11808 11.4339
86 2 1.008 1.22062 9.60201 11.2639
87 2 1.008 2.78013 9.68244 11.0996
88 1 15.9994 8.8783 13.0227 11.3232
89 2 1.008 7.97501 13.4619 11.2065
90 2 1.008 0.639807 13.6021 11.0173
91 1 15.9994 8.89834 10.6103 10.6121
92 2 1.008 8.94179 10.5695 9.64468
93 2 1.008 8.77632 11.5879 10.8519
94 1 15.9994 2.08869 14.3761 10.5485
95 2 1.008 2.10518 14.3576 9.57628
96 2 1.008 2.04 15.291 10.8533
97 1 15.9994 4.69093 2.5389 0.442675
98 2 1.008 3.93703 1.90917 0.205681
99 2 1.008 5.54491 2.16024 0.15734
100 1 15.9994 6.93101 6.45715 0.364266
101 2 1.008 6.12889 6.00802 -0.0167439
102 2 1.008 7.69228 5.84802 0.305571
103 1 15.9994 6.89971 1.15081 6.86519
104 2 1.008 6.9143 0.261071 7.29178
105 2 1.008 6.64357 1.00493 5.94013
106 1 15.9994 4.64196 4.97638 6.90461
107 2 1.008 4.61858 3.99429 7.0978
108 2 1.008 4.49871 5.08094 5.95489
109 1 15.9994 6.62192 1.34989 3.95725
110 2 1.008 5.8169 1.85829 3.86143
111 2 1.008 7.41954 1.93005 3.92983
112 1 15.9994 4.31804 5.20692 4.02901
113 2 1.008 3.57633 5.81908 3.91916
114 2 1.008 5.1473 5.73528 3.99726
115 1 15.9994 4.33677 2.72948 3.2848
116 2 1.008 4.47907 2.77359 2.31064
117 2 1.008 4.22349 3.67611 3.56667
118 1 15.9994 6.60678 6.59441 3.257
119 2 1.008 6.60401 6.75325 2.30077
120 2 1.008 6.53419 7.51802 3.65428
121 1 15.9994 4.60435 2.55032 7.67513
122 2 1.008 3.88979 2.02054 7.30213
123 2 1.008 5.42295 2.08301 7.45337
124 1 15.9994 6.91089 6.46658 7.65215
125 2 1.008 6.23282 5.83488 7.41847
126 2 1.008 7.74303 6.01874 7.50255
127 1 15.9994 6.89293 1.17252 14.1124
128 2 1.008 6.80596 0.221156 14.4021
129 2 1.008 6.8181 1.11548 13.1453
130 1 15.9994 4.68351 5.09492 14.2456
131 2 1.008 4.653 4.17555 14.6219
132 2 1.008 4.56085 5.04159 13.2974
133 1 15.9994 6.65458 1.33471 11.2928
134 2 1.008 5.79981 1.78565 11.0558
135 2 1.008 7.41847 1.89362 10.976
136 1 15.9994 4.26516 5.30074 11.3609
137 2 1.008 3.51679 5.91199 11.0707
138 2 1.008 5.04352 5.64391 10.9254
139 1 15.9994 4.37022 2.7621 10.6272
140 2 1.008 4.43231 2.88449 9.66673
141 2 1.008 4.35694 3.64691 11.0525
142 1 15.9994 6.61133 6.56146 10.5484
143 2 1.008 6.68802 6.59325 9.58121
144 2 1.008 6.59402 7.49848 10.8335
145 1 15.9994 4.63135 10.3952 0.323375
146 2 1.008 3.84321 9.81003 0.162718
147 2 1.008 5.40031 9.83626 0.234756
148 1 15.9994 6.9329 14.2315 0.252947
149 2 1.008 6.10778 13.7936 0.289056
150 2 1.008 7.62198 13.5494 0.112022
151 1 15.9994 6.98026 8.91273 6.87679
152 2 1.008 6.93921 7.99085 7.22244
153 2 1.008 6.94616 8.93316 5.92795
154 1 15.9994 4.65221 12.8222 6.8376
155 2 1.008 4.6124 11.8676 7.14003
156 2 1.008 4.43107 12.7575 5.9024
157 1 15.9994 6.549 9.16977 4.01569
158 2 1.008 5.808 9.67293 3.66642
159 2 1.008 7.36075 9.6232 3.73177
160 1 15.9994 4.38514 13.0653 3.99969
161 2 1.008 3.64032 13.649 3.7117
162 2 1.008 5.24063 13.5432 3.84843
163 1 15.9994 4.32529 10.5077 3.20646
164 2 1.008 4.29719 10.573 2.24758
165 2 1.008 4.36752 11.4269 3.58886
166 1 15.9994 6.58895 14.4434 3.24994
167 2 1.008 6.74409 14.6632 2.3144
168 2 1.008 6.68808 15.3757 3.68975
169 1 15.9994 4.62625 10.2845 7.59335
170 2 1.008 3.8121 9.7394 7.40692
171 2 1.008 5.4208 9.72709 7.49003
172 1 15.9994 6.82652 14.2269 7.66551
173 2 1.008 6.06726 13.7102 7.38793
174 2 1.008 7.59875 13.7265 7.3001
175 1 15.9994 6.91964 8.88875 14.2033
176 2 1.008 6.96351 7.91423 14.498
177 2 1.008 6.88893 8.91118 13.221
178 1 15.9994 4.6529 12.8385 14.2617
179 2 1.008 4.62664 11.9273 14.6314
180 2 1.008 4.49794 12.679 13.3261
181 1 15.9994 6.53002 9.11906 11.3748
182 2 1.008 5.69384 9.54059 11.161
183 2 1.008 7.19796 9.82375 11.1791
184 1 15.9994 4.31944 13.0505 11.3682
185 2 1.008 3.62441 13.6444 11.1038
186 2 1.008 5.21356 13.4541 11.2278
187 1 15.9994 4.31174 10.5458 10.5679
188 2 1.008 4.56497 10.5381 9.61017
189 2 1.008 4.23776 11.4954 10.7882
190 1 15.9994 6.48783 14.3724 10.5592
191 2 1.008 6.68609 14.5809 9.66402
192 2 1.008 6.5866 15.2438 11.031
ITEM: TIMESTEP
300
ITEM: NUMBER OF ATOMS
192
ITEM: BOX BOUNDS xy xz yz pp pp pp
0.0000000000000000e+00 8.9939999999999998e+00 0.0000000000000000e+00
0.0000000000000000e+00 1.5577999999999999e+01 0.0000000000000000e+00
0.0000000000000000e+00 1.4644000000000000e+01 0.0000000000000000e+00
ITEM: ATOMS id type mass x y z
1 1 15.9994 0.173157 2.48797 0.41417
2 2 1.008 8.41845 1.95691 0.0513244
3 2 1.008 1.02826 1.98896 0.267331
4 1 15.9994 2.48345 6.40979 0.446501
5 2 1.008 1.67511 5.9561 0.137037
6 2 1.008 3.25283 5.8402 0.194145
7 1 15.9994 2.45846 1.26023 6.81892
8 2 1.008 2.57447 0.338616 7.15098
9 2 1.008 2.29094 1.23944 5.86388
10 1 15.9994 0.253452 5.09859 7.00373
11 2 1.008 0.220525 4.17645 7.34723
12 2 1.008 0.131936 5.04234 6.03295
13 1 15.9994 2.02283 1.39489 3.98967
14 2 1.008 1.25475 1.93804 3.72275
15 2 1.008 2.84919 1.86757 3.75958
16 1 15.9994 8.87401 5.31093 3.99373
17 2 1.008 8.04178 5.76135 3.78216
18 2 1.008 0.64582 5.7858 3.69952
19 1 15.9994 8.79759 2.70355 3.38827
20 2 1.008 8.67761 2.83176 2.42691
21 2 1.008 8.88715 3.63513 3.75483
22 1 15.9994 2.13197 6.61111 3.27864
23 2 1.008 2.28408 6.59566 2.33522
24 2 1.008 2.11585 7.55802 3.5041
25 1 15.9994 0.250389 2.64142 7.71931
26 2 1.008 8.44975 2.17734 7.38987
27 2 1.008 1.03091 2.09348 7.55557
28 1 15.9994 2.46133 6.31014 7.72359
29 2 1.008 1.70155 5.78695 7.39914
30 2 1.008 3.22505 5.81048 7.4522
31 1 15.9994 2.37313 1.11758 14.3233
32 2 1.008 2.37344 0.152325 14.5692
33 2 1.008 2.42599 1.22505 13.3417
34 1 15.9994 0.0950187 5.07987 14.2207
35 2 1.008 0.125174 4.09074 14.4573
36 2 1.008 -0.346404 5.1291 13.3562
37 1 15.9994 2.14531 1.22165 11.3796
38 2 1.008 1.42689 1.85077 11.2985
39 2 1.008 2.96989 1.73371 11.0056
40 1 15.9994 8.72505 5.26041 11.2794
41 2 1.008 8.06597 5.92151 10.9552
42 2 1.008 0.616895 5.67102 11.1923
43 1 15.9994 8.80748 2.85223 10.6187
44 2 1.008 8.97612 2.87691 9.67743
45 2 1.008 8.69984 3.7967 10.948
46 1 15.9994 2.03381 6.55292 10.5354
47 2 1.008 2.05606 6.63464 9.56268
48 2 1.008 2.02151 7.48438 10.9071
49 1 15.9994 0.217053 10.2746 0.270294
50 2 1.008 8.37132 9.78419 0.0121492
51 2 1.008 0.966305 9.70188 0.0137703
52 1 15.9994 2.39668 14.2779 0.307353
53 2 1.008 1.64085 13.6554 0.144973
54 2 1.008 3.18763 13.7232 0.148263
55 1 15.9994 2.55259 8.95916 6.9049
56 2 1.008 2.58646 8.02312 7.2002
57 2 1.008 2.2122 8.89709 5.99339
58 1 15.9994 0.208233 12.9913 6.9392
59 2 1.008 0.349109 12.0682 7.31693
60 2 1.008 0.132811 12.8154 5.96704
61 1 15.9994 2.11349 9.22603 3.9392
62 2 1.008 1.34225 9.82767 3.79002
63 2 1.008 2.94836 9.75734 3.77485
64 1 15.9994 8.73697 13.0559 4.03254
65 2 1.008 8.03097 13.6436 3.71191
66 2 1.008 0.584359 13.522 3.86631
67 1 15.9994 8.83404 10.5334 3.28457
68 2 1.008 8.87491 10.4668 2.32222
69 2 1.008 8.72681 11.466 3.48574
70 1 15.9994 2.05769 14.4265 3.34968
71 2 1.008 2.05798 14.4803 2.38916
72 2 1.008 1.98998 15.3638 3.70752
73 1 15.9994 0.104491 10.2728 7.63062
74 2 1.008 8.32753 9.65573 7.3954
75 2 1.008 0.942034 9.77522 7.59346
76 1 15.9994 2.48153 14.2351 7.54197
77 2 1.008 1.65304 13.7485 7.40246
78 2 1.008 3.28709 13.656 7.40578
79 1 15.9994 2.33342 8.92184 14.1839
80 2 1.008 2.43723 7.97073 14.4252
81 2 1.008 2.33285 8.94181 13.2197
82 1 15.9994 0.0755768 12.8429 14.2798
83 2 1.008 0.167619 11.889 14.5835
84 2 1.008 0.111839 12.8292 13.3063
85 1 15.9994 2.04499 9.10433 11.4979
86 2 1.008 1.26383 9.67109 11.3355
87 2 1.008 2.80851 9.61804 11.1766
88 1 15.9994 8.87824 13.0247 11.3254
89 2 1.008 8.04277 13.532 11.1931
90 2 1.008 0.621972 13.6363 11.0166
91 1 15.9994 8.92888 10.6484 10.6595
92 2 1.008 8.88045 10.5977 9.69416
93 2 1.008 9.1402 11.5697 10.9017
94 1 15.9994 2.06448 14.3432 10.532
95 2 1.008 2.02252 14.4415 9.58111
96 2 1.008 2.15564 15.2602 10.8385
97 1 15.9994 4.71244 2.53936 0.510312
98 2 1.008 4.00249 1.8597 0.351228
99 2 1.008 5.53475 2.069 0.221767
100 1 15.9994 6.93886 6.4529 0.376457
101 2 1.008 6.15541 5.88541 0.121474
102 2 1.008 7.74911 5.91191 0.344449
103 1 15.9994 6.92156 1.1407 6.8267
104 2 1.008 6.87362 0.255269 7.25197
105 2 1.008 6.71745 0.938348 5.91648
106 1 15.9994 4.65227 4.93294 6.86955
107 2 1.008 4.62547 3.9981 7.22408
108 2 1.008 4.43507 4.9062 5.92234
109 1 15.9994 6.61747 1.35859 3.92022
110 2 1.008 5.8786 1.98511 3.79774
111 2 1.008 7.44985 1.89225 3.81624
112 1 15.9994 4.30481 5.17497 4.06662
113 2 1.008 3.54973 5.78036 3.92514
114 2 1.008 5.12764 5.65168 3.8065
115 1 15.9994 4.32764 2.72319 3.3068
116 2 1.008 4.52952 2.73334 2.36291
117 2 1.008 4.38774 3.65354 3.64866
118 1 15.9994 6.61658 6.59889 3.28274
119 2 1.008 6.68463 6.74396 2.30459
120 2 1.008 6.5669 7.52185 3.68107
121 1 15.9994 4.5643 2.53492 7.66201
122 2 1.008 3.76018 2.07803 7.33066
123 2 1.008 5.36045 2.00711 7.5151
124 1 15.9994 6.90692 6.44967 7.65426
125 2 1.008 6.17997 5.84796 7.47892
126 2 1.008 7.75109 6.00547 7.51501
127 1 15.9994 6.87746 1.18315 14.0053
128 2 1.008 7.03011 0.268021 14.3523
129 2 1.008 6.82829 1.18286 13.0408
130 1 15.9994 4.72057 5.1188 14.2159
131 2 1.008 4.73861 4.19575 14.5866
132 2 1.008 4.56278 5.0263 13.2408
133 1 15.9994 6.70636 1.34005 11.2563
134 2 1.008 5.88818 1.84166 11.0591
135 2 1.008 7.48557 1.92658 11.0072
136 1 15.9994 4.21555 5.3506 11.3859
137 2 1.008 3.39743 5.81428 11.0242
138 2 1.008 5.04203 5.80562 11.1206
139 1 15.9994 4.40696 2.77602 10.676
140 2 1.008 4.38909 2.90404 9.70777
141 2 1.008 4.2234 3.70162 11.0136
142 1 15.9994 6.62682 6.52845 10.5134
143 2 1.008 6.741 6.55648 9.56169
144 2 1.008 6.59267 7.45929 10.8221
145 1 15.9994 4.62726 10.4011 0.306621
146 2 1.008 3.83759 9.84147 0.128648
147 2 1.008 5.39963 9.86512 0.124739
148 1 15.9994 6.91938 14.2369 0.193003
149 2 1.008 6.12801 13.7157 0.116966
150 2 1.008 7.70242 13.6525 0.109945
151 1 15.9994 7.02872 8.89374 6.85246
152 2 1.008 6.97808 7.92502 7.13397
153 2 1.008 6.89142 8.86153 5.88909
154 1 15.9994 4.63474 12.7849 6.80411
155 2 1.008 4.69464 11.8179 7.09682
156 2 1.008 4.45373 12.847 5.86339
157 1 15.9994 6.5146 9.17278 4.01034
158 2 1.008 5.76288 9.76581 3.81382
159 2 1.008 7.3426 9.6388 3.83607
160 1 15.9994 4.39232 13.0871 3.98373
161 2 1.008 3.69059 13.7437 3.85125
162 2 1.008 5.23506 13.5361 3.72379
163 1 15.9994 4.31743 10.5367 3.19492
164 2 1.008 4.28652 10.6227 2.22721
165 2 1.008 4.37221 11.4773 3.48281
166 1 15.9994 6.61283 14.465 3.25109
167 2 1.008 6.77504 14.6205 2.31162
168 2 1.008 6.4968 15.4094 3.64585
169 1 15.9994 4.63615 10.2493 7.57728
170 2 1.008 3.83408 9.74451 7.26052
171 2 1.008 5.41496 9.71234 7.34647
172 1 15.9994 6.77502 14.2204 7.64308
173 2 1.008 5.99718 13.6942 7.42743
174 2 1.008 7.59736 13.7438 7.37087
175 1 15.9994 6.94152 8.85424 14.1888
176 2 1.008 7.00051 7.88536 14.4665
177 2 1.008 6.81153 8.87455 13.215
178 1 15.9994 4.64409 12.8213 14.2673
179 2 1.008 4.62243 11.9156 14.6549
180 2 1.008 4.54389 12.7728 13.3136
181 1 15.9994 6.4871 9.12225 11.4008
182 2 1.008 5.65693 9.58108 11.2844
183 2 1.008 7.2243 9.73953 11.1395
184 1 15.9994 4.30251 13.0525 11.3922
185 2 1.008 3.62167 13.673 11.1402
186 2 1.008 5.13586 13.4953 11.09
187 1 15.9994 4.30339 10.5624 10.5439
188 2 1.008 4.43431 10.5796 9.57329
189 2 1.008 4.28312 11.4669 10.895
190 1 15.9994 6.41624 14.3623 10.5561
191 2 1.008 6.58611 14.4535 9.59127
192 2 1.008 6.56914 15.2641 10.9645
ITEM: TIMESTEP
400
ITEM: NUMBER OF ATOMS
192
ITEM: BOX BOUNDS xy xz yz pp pp pp
0.0000000000000000e+00 8.9939999999999998e+00 0.0000000000000000e+00
0.0000000000000000e+00 1.5577999999999999e+01 0.0000000000000000e+00
0.0000000000000000e+00 1.4644000000000000e+01 0.0000000000000000e+00
ITEM: ATOMS id type mass x y z
1 1 15.9994 0.153387 2.47758 0.431672
2 2 1.008 8.39462 1.96956 0.0756242
3 2 1.008 0.939385 1.88565 0.344741
4 1 15.9994 2.51513 6.39803 0.454697
5 2 1.008 1.77068 5.86736 0.102571
6 2 1.008 3.33611 5.87367 0.268545
7 1 15.9994 2.47836 1.27776 6.79312
8 2 1.008 2.48925 0.339025 7.06257
9 2 1.008 2.31159 1.26304 5.85477
10 1 15.9994 0.259778 5.14013 7.03977
11 2 1.008 0.248056 4.19253 7.29375
12 2 1.008 0.0761638 5.11935 6.07976
13 1 15.9994 1.99439 1.41272 4.01593
14 2 1.008 1.204 1.98346 3.98093
15 2 1.008 2.78966 1.96531 3.79907
16 1 15.9994 8.90889 5.33478 4.0234
17 2 1.008 8.11649 5.88054 3.8448
18 2 1.008 0.673553 5.84539 3.72085
19 1 15.9994 8.81485 2.72632 3.43756
20 2 1.008 8.82517 2.67795 2.45229
21 2 1.008 8.83778 3.71463 3.65784
22 1 15.9994 2.16853 6.60593 3.27592
23 2 1.008 2.45144 6.64094 2.3412
24 2 1.008 2.08965 7.52507 3.59001
25 1 15.9994 0.253536 2.64752 7.73202
26 2 1.008 8.50212 2.03672 7.54617
27 2 1.008 1.03054 2.09278 7.50549
28 1 15.9994 2.49778 6.30833 7.75723
29 2 1.008 1.6483 5.86594 7.52453
30 2 1.008 3.25572 5.77522 7.5078
31 1 15.9994 2.37659 1.1343 14.3642
32 2 1.008 2.48423 0.187753 14.6123
33 2 1.008 2.43861 1.09227 13.4229
34 1 15.9994 0.0393878 5.05876 14.2436
35 2 1.008 0.0973553 4.11571 14.6046
36 2 1.008 -0.162245 5.02859 13.3124
37 1 15.9994 2.17371 1.18969 11.3885
38 2 1.008 1.36459 1.73907 11.3558
39 2 1.008 2.98797 1.76683 11.1352
40 1 15.9994 8.70438 5.28616 11.278
41 2 1.008 7.9048 5.79907 11.0031
42 2 1.008 0.535379 5.73565 10.9874
43 1 15.9994 8.80033 2.85283 10.6289
44 2 1.008 9.01334 2.86573 9.70663
45 2 1.008 8.73584 3.83912 10.9064
46 1 15.9994 1.99054 6.57199 10.5233
47 2 1.008 2.07725 6.47386 9.55754
48 2 1.008 1.95381 7.53802 10.7851
49 1 15.9994 0.227854 10.2586 0.280777
50 2 1.008 8.43411 9.68994 0.0823327
51 2 1.008 1.03558 9.78724 0.0247311
52 1 15.9994 2.40247 14.2365 0.303608
53 2 1.008 1.58849 13.7498 0.0776423
54 2 1.008 3.23157 13.7226 0.19042
55 1 15.9994 2.56433 8.93665 6.90336
56 2 1.008 2.66582 8.00938 7.19108
57 2 1.008 2.28113 8.98981 5.97452
58 1 15.9994 0.245253 13.0005 6.93868
59 2 1.008 0.341919 12.0705 7.33168
60 2 1.008 -0.0221696 12.8532 5.98342
61 1 15.9994 2.11829 9.26351 3.92859
62 2 1.008 1.37871 9.89394 3.83607
63 2 1.008 2.96105 9.75912 3.72358
64 1 15.9994 8.70876 13.0665 4.03966
65 2 1.008 7.92222 13.6072 3.83175
66 2 1.008 0.517453 13.5923 3.82446
67 1 15.9994 8.82556 10.5604 3.2744
68 2 1.008 8.95911 10.5947 2.32804
69 2 1.008 8.80571 11.4874 3.58264
70 1 15.9994 2.04344 14.4287 3.39899
71 2 1.008 2.15189 14.4183 2.44637
72 2 1.008 1.94362 15.3946 3.63254
73 1 15.9994 0.114641 10.2831 7.64097
74 2 1.008 8.37875 9.61934 7.3553
75 2 1.008 0.961914 9.84969 7.45912
76 1 15.9994 2.49325 14.2839 7.50205
77 2 1.008 1.68587 13.7768 7.36662
78 2 1.008 3.23378 13.6651 7.28444
79 1 15.9994 2.34177 8.91082 14.1799
80 2 1.008 2.44113 8 14.5514
81 2 1.008 2.23526 8.88278 13.2213
82 1 15.9994 0.0601453 12.8255 14.3043
83 2 1.008 0.061499 11.8533 14.6038
84 2 1.008 0.0912053 12.8028 13.334
85 1 15.9994 2.04672 9.09961 11.5332
86 2 1.008 1.24167 9.62943 11.3235
87 2 1.008 2.80524 9.56931 11.1379
88 1 15.9994 8.87943 13.0434 11.3249
89 2 1.008 8.08129 13.5175 11.075
90 2 1.008 0.707485 13.6062 11.1327
91 1 15.9994 8.9616 10.6045 10.6868
92 2 1.008 8.85721 10.6372 9.72519
93 2 1.008 9.01797 11.5579 10.9483
94 1 15.9994 2.04605 14.3154 10.498
95 2 1.008 2.14264 14.3906 9.55377
96 2 1.008 2.05473 15.2053 10.9007
97 1 15.9994 4.74326 2.53545 0.568226
98 2 1.008 3.91152 2.01659 0.452644
99 2 1.008 5.49896 1.97558 0.288491
100 1 15.9994 6.94574 6.43044 0.379385
101 2 1.008 6.23001 5.77399 0.256887
102 2 1.008 7.78853 5.96533 0.310454
103 1 15.9994 6.96073 1.14525 6.79425
104 2 1.008 6.95124 0.234512 7.13198
105 2 1.008 6.87472 1.09494 5.85627
106 1 15.9994 4.67189 4.89145 6.83377
107 2 1.008 4.69436 3.98262 7.2303
108 2 1.008 4.52062 4.72901 5.89709
109 1 15.9994 6.59501 1.36845 3.89574
110 2 1.008 5.84532 1.99547 3.79935
111 2 1.008 7.46456 1.77101 3.72715
112 1 15.9994 4.33488 5.1408 4.08385
113 2 1.008 3.51192 5.67263 3.91417
114 2 1.008 5.08482 5.66572 3.72281
115 1 15.9994 4.3131 2.70992 3.32877
116 2 1.008 4.49916 2.68644 2.38543
117 2 1.008 4.37087 3.6652 3.59492
118 1 15.9994 6.62562 6.61168 3.28825
119 2 1.008 6.82691 6.64494 2.31909
120 2 1.008 6.56299 7.5708 3.56338
121 1 15.9994 4.52977 2.52267 7.67714
122 2 1.008 3.73242 2.05522 7.35956
123 2 1.008 5.274 1.93206 7.50531
124 1 15.9994 6.90591 6.44107 7.65916
125 2 1.008 6.14112 5.91801 7.38603
126 2 1.008 7.6935 5.89045 7.49075
127 1 15.9994 6.86423 1.2191 13.9401
128 2 1.008 6.98995 0.257598 14.153
129 2 1.008 6.82505 1.20834 12.9673
130 1 15.9994 4.75891 5.11112 14.1904
131 2 1.008 4.7402 4.16029 14.511
132 2 1.008 4.53263 5.12545 13.2105
133 1 15.9994 6.73428 1.34479 11.2046
134 2 1.008 5.9149 1.8829 11.1863
135 2 1.008 7.49939 1.98243 11.0378
136 1 15.9994 4.18002 5.37093 11.4057
137 2 1.008 3.37016 5.90132 11.1026
138 2 1.008 4.94442 5.96989 11.2559
139 1 15.9994 4.43002 2.80596 10.7023
140 2 1.008 4.39331 2.82683 9.72974
141 2 1.008 4.33835 3.73149 11.0771
142 1 15.9994 6.63231 6.50442 10.4494
143 2 1.008 6.75022 6.58443 9.50331
144 2 1.008 6.55291 7.40258 10.7811
145 1 15.9994 4.59867 10.3605 0.2925
146 2 1.008 3.7901 9.89958 -0.0254915
147 2 1.008 5.37791 9.81398 0.080477
148 1 15.9994 6.89223 14.2452 0.153006
149 2 1.008 6.19132 13.6596 -0.137503
150 2 1.008 7.70447 13.7431 0.0482773
151 1 15.9994 7.06641 8.86857 6.8028
152 2 1.008 6.97293 7.93509 7.13423
153 2 1.008 6.82487 8.93559 5.85014
154 1 15.9994 4.64644 12.7445 6.77933
155 2 1.008 4.70114 11.7557 7.01805
156 2 1.008 4.63721 12.8104 5.82344
157 1 15.9994 6.47597 9.17637 4.02762
158 2 1.008 5.67769 9.7472 3.92389
159 2 1.008 7.24705 9.72336 3.85265
160 1 15.9994 4.39493 13.1174 3.95092
161 2 1.008 3.57211 13.6302 3.83568
162 2 1.008 5.18462 13.6261 3.69014
163 1 15.9994 4.30343 10.597 3.18135
164 2 1.008 4.42078 10.4987 2.22137
165 2 1.008 4.19427 11.5393 3.43922
166 1 15.9994 6.64704 14.479 3.25286
167 2 1.008 6.66844 14.4 2.29323
168 2 1.008 6.5482 15.4871 3.47366
169 1 15.9994 4.66937 10.236 7.57758
170 2 1.008 3.87022 9.72026 7.26478
171 2 1.008 5.46421 9.80907 7.24555
172 1 15.9994 6.7352 14.2107 7.61798
173 2 1.008 6.00058 13.6098 7.36411
174 2 1.008 7.54297 13.662 7.51197
175 1 15.9994 6.95087 8.84973 14.1783
176 2 1.008 6.89735 7.91451 14.4752
177 2 1.008 6.7332 8.83253 13.2459
178 1 15.9994 4.61232 12.8553 14.2803
179 2 1.008 4.62392 11.8883 14.4733
180 2 1.008 4.63131 12.8546 13.3013
181 1 15.9994 6.443 9.09342 11.414
182 2 1.008 5.69819 9.67931 11.1967
183 2 1.008 7.26286 9.6396 11.244
184 1 15.9994 4.29205 13.0614 11.4045
185 2 1.008 3.43227 13.4602 11.2261
186 2 1.008 5.04424 13.5857 11.0748
187 1 15.9994 4.30581 10.5598 10.5416
188 2 1.008 4.27435 10.7068 9.57733
189 2 1.008 4.28279 11.4848 10.8967
190 1 15.9994 6.35934 14.3576 10.5612
191 2 1.008 6.43818 14.2667 9.55162
192 2 1.008 6.44454 15.3513 10.7467
ITEM: TIMESTEP
500
ITEM: NUMBER OF ATOMS
192
ITEM: BOX BOUNDS xy xz yz pp pp pp
0.0000000000000000e+00 8.9939999999999998e+00 0.0000000000000000e+00
0.0000000000000000e+00 1.5577999999999999e+01 0.0000000000000000e+00
0.0000000000000000e+00 1.4644000000000000e+01 0.0000000000000000e+00
ITEM: ATOMS id type mass x y z
1 1 15.9994 0.13772 2.44715 0.460261
2 2 1.008 8.33693 2.05111 0.0606142
3 2 1.008 0.913216 1.86718 0.221436
4 1 15.9994 2.54167 6.36305 0.465699
5 2 1.008 1.77961 5.76422 0.277966
6 2 1.008 3.40972 5.92156 0.259413
7 1 15.9994 2.47633 1.26482 6.75008
8 2 1.008 2.4694 0.312362 6.99679
9 2 1.008 2.2937 1.36801 5.83752
10 1 15.9994 0.242712 5.16172 7.05092
11 2 1.008 0.284959 4.20319 7.27524
12 2 1.008 0.147972 5.28283 6.09902
13 1 15.9994 1.97864 1.42653 4.03637
14 2 1.008 1.18839 1.99074 4.01648
15 2 1.008 2.7621 1.99248 3.79333
16 1 15.9994 8.93853 5.33609 4.03888
17 2 1.008 8.16242 5.94475 3.96952
18 2 1.008 0.768228 5.8157 3.80151
19 1 15.9994 8.82438 2.74718 3.46946