384
 Atoms. Timestep: 80
O 1.33136 1.77006 3.34875
H 1.27139 2.74586 3.23825
H 0.395144 1.43841 3.30406
O 5.28504 4.5794 1.13999
H 5.73648 4.94624 1.93603
H 5.79741 4.87264 0.355553
O 6.51575 5.52038 3.36342
H 6.06715 5.27491 4.19593
H 6.47075 6.50234 3.30916
O 5.24659 4.54347 5.65228
H 4.32906 4.93326 5.65154
H 5.74525 4.85884 6.4365
O 2.60559 0.876182 5.56851
H 2.21541 1.15241 4.69984
H 3.54856 1.2178 5.56532
O 2.62359 5.47377 5.62258
H 2.567 6.45988 5.63168
H 2.14055 5.18496 6.43324
O 5.25805 1.79738 1.13552
H 5.23519 2.78876 1.14592
H 5.66199 1.50161 1.9836
O 5.25104 1.78342 5.62917
H 5.70527 1.48176 6.45051
H 5.25895 2.76135 5.63038
O 1.3692 4.5475 7.90294
H 1.36669 3.5594 7.88916
H 1.73618 4.86437 8.76825
O 1.34496 4.51112 3.35547
H 1.83649 4.81864 2.57001
H 1.70858 4.91377 4.18159
O 2.6418 5.42411 1.14064
H 2.5755 6.40808 1.10322
H 3.60718 5.25478 0.959945
O 2.645 0.88117 1.09145
H 2.1657 1.19812 1.88656
H 3.54356 1.298 1.07682
O 6.55082 0.82684 3.39013
H 6.14332 1.12526 4.23403
H 8.18909 1.53179 3.34329
O 6.50333 0.824603 7.87139
H 6.00421 1.21389 8.63612
H 8.22734 1.33874 7.91242
O 6.55655 5.51708 7.90244
H 7.48475 5.20279 7.8388
H 6.59876 6.49933 7.97061
O 1.30899 1.72103 7.83715
H 1.71416 1.44293 6.98693
H 0.398683 1.35906 7.94678
O 9.1517 1.80775 3.31007
H 9.06223 2.78483 3.30148
H 9.91755 1.1553 1.89964
O 13.0616 4.53383 1.05561
H 13.0922 3.55366 1.10447
H 13.4898 4.85218 0.226983
O 14.3908 5.44447 3.32869
H 15.3185 5.0593 3.31824
H 13.9207 5.0292 2.5584
O 13.0673 4.57454 5.61243
H 13.4141 4.88672 4.74029
H 12.1183 4.86813 5.67425
O 10.4637 0.910915 5.55857
H 9.98399 1.2585 4.78034
H 11.407 1.19357 5.58848
O 10.4199 5.45078 5.60735
H 9.98365 5.19499 4.73932
H 10.4287 6.43522 5.65169
O 13.0811 1.75759 1.11435
H 12.1698 1.35719 1.10722
H 13.5349 1.3287 1.89513
O 13.0645 1.79259 5.65395
H 13.5119 1.42183 6.45296
H 13.1067 2.7624 5.78372
O 9.14291 4.49032 7.83597
H 9.07281 3.51994 7.75634
H 9.68903 4.74661 7.0286
O 9.13293 4.57144 3.3227
H 8.23763 4.94993 3.22932
H 9.64973 4.84782 2.51354
O 10.424 5.4095 1.05213
H 10.0674 5.09161 0.197617
H 11.3448 5.08277 1.10616
O 10.4313 0.886419 1.09657
H 10.0197 1.22076 0.270094
H 13.88 1.11726 4.22657
O 14.3552 0.841806 3.41386
H 13.8339 1.13773 8.67731
H 13.9246 5.17201 7.07334
O 14.3637 0.842473 7.90124
H 13.0358 2.81337 10.1107
H 12.1052 1.60343 10.0546
O 14.4065 5.48054 7.8653
H 15.3324 5.12638 7.80798
H 14.2278 7.24466 7.82874
O 9.14036 1.71898 7.85754
H 9.54811 1.42765 7.00785
H 9.93431 1.12947 9.30394
O 1.34819 9.1316 3.40707
H 1.79651 8.7319 4.18398
H 1.36274 10.1077 3.34981
O 5.24109 11.8773 1.11464
H 5.1383 10.8921 0.99197
H 4.29897 12.1546 1.19839
O 6.56008 12.7973 3.33617
H 7.49038 12.468 3.30515
H 6.05394 12.3796 2.60352
O 5.24649 11.8882 5.62274
H 5.74294 12.157 6.43581
H 5.72254 12.3003 4.85759
O 2.62901 8.23441 5.61707
H 3.56383 8.51929 5.68581
H 2.22667 8.57889 6.43835
O 2.63265 12.7998 5.63159
H 2.65012 13.7784 5.63926
H 3.57133 12.5189 5.75138
O 5.21117 9.10974 1.10353
H 4.27454 8.783 1.06317
H 5.60972 8.78192 0.256964
O 5.23706 9.14559 5.62381
H 5.66233 8.91728 4.75555
H 5.20241 10.1329 5.67243
O 1.30051 11.8764 7.87564
H 1.34387 10.8979 7.79891
H 1.74085 12.2648 7.09574
O 1.34477 11.9079 3.36443
H 0.434877 12.28 3.36997
H 1.76068 12.294 4.16453
O 2.61946 12.8108 1.06971
H 2.5527 13.7867 1.13446
H 2.12951 12.5292 1.88728
O 2.60432 8.21389 1.08884
H 2.10322 8.56302 0.332141
H 2.19974 8.46581 1.94451
O 6.54301 8.25406 3.34166
H 7.46427 8.60716 3.2894
H 6.10574 8.59124 2.53077
O 6.52383 8.28061 7.86546
H 6.06469 8.64946 7.08656
H 7.51194 8.44524 7.76125
O 6.58011 12.7841 7.91765
H 6.14063 12.5715 8.76343
H 7.50501 12.4462 7.978
O 1.31935 9.09017 7.88582
H 0.410171 8.73815 7.90052
H 1.76295 8.70286 8.68455
O 9.13977 9.12659 3.35171
H 9.56576 8.70962 2.56398
H 9.57883 8.8329 4.17644
O 13.0577 11.8489 1.08564
H 13.0639 10.877 1.27525
H 12.1035 12.074 1.02831
O 14.3943 12.7617 3.3665
H 13.8838 12.4554 4.13859
H 13.931 12.4 2.58067
O 13.0426 11.8872 5.61346
H 12.1228 12.2582 5.69926
H 13.47 12.2126 6.43207
O 10.4347 8.23891 5.64324
H 11.3913 8.48382 5.57592
H 9.97383 8.52003 6.4785
O 10.4559 12.8367 5.60536
H 10.051 12.5627 4.74326
H 10.4619 13.8193 5.59962
O 13.0365 9.07105 1.09195
H 13.5301 8.83983 0.269951
H 13.5038 8.69854 1.87379
O 13.0464 9.14704 5.60589
H 13.5299 8.89582 4.78305
H 13.1486 10.1163 5.72167
O 9.18223 11.895 7.88533
H 9.67495 12.1928 7.06892
H 9.67597 12.1893 8.69048
O 9.14177 11.8695 3.33502
H 9.1696 10.8562 3.32946
H 9.58624 12.1638 2.51159
O 10.4591 12.7891 1.06453
H 9.96419 12.4204 0.290878
H 10.4795 13.7703 0.998976
O 10.445 8.18425 1.12847
H 10.4942 7.18292 1.20502
H 11.3763 8.50214 1.18859
O 14.3451 8.19797 3.36551
H 14.3924 7.20221 3.35694
H 15.2478 8.56033 3.43625
O 14.3115 8.21703 7.89977
H 14.0236 8.56771 7.01052
H 13.5842 8.82136 9.38581
O 14.3404 12.8133 7.92368
H 13.9632 12.3543 8.71543
H 15.2397 12.4091 7.8635
O 9.11915 9.13856 7.90725
H 9.18914 10.1105 8.05517
H 9.55056 8.82486 8.74164
O 1.33065 1.7448 12.3983
H 1.73345 1.45721 11.5348
H 0.385787 1.46258 12.3057
O 5.26634 4.5478 10.1499
H 5.70244 4.86007 10.9754
H 5.77417 4.90133 9.38047
O 6.55921 5.50362 12.381
H 6.11447 5.22424 13.2209
H 6.57376 6.48353 12.3884
O 5.2244 4.51372 14.6438
H 5.12735 3.5328 14.6319
H 4.31982 4.86429 14.761
O 2.64532 0.864221 14.657
H 2.14519 1.13644 15.4819
H 2.11796 1.29904 13.9489
O 2.65111 5.43036 14.7126
H 2.55926 6.4157 14.7154
H 2.10458 5.12782 15.4814
O 5.24083 1.78154 10.164
H 4.28768 1.51747 10.1514
H 5.29483 2.76251 10.1354
O 5.24787 1.74434 14.6784
H 5.78024 1.43448 15.4436
H 4.32009 1.42645 14.6076
O 1.34398 4.51948 16.9477
H 1.32835 3.54269 16.9993
H 1.83279 4.87136 17.736
O 1.37719 4.50399 12.4176
H 1.3661 3.52843 12.3366
H 1.93319 4.93956 13.1171
O 2.63703 5.45082 10.1238
H 2.20343 5.1885 10.9605
H 3.60723 5.26515 10.1511
O 2.64419 0.862348 10.1015
H 2.15699 1.17278 9.30803
H 6.09016 1.30151 11.6295
O 6.56724 0.882815 12.3914
H 6.13875 1.21914 13.2066
H 8.24254 1.38871 12.3593
O 6.58272 0.826495 16.9157
H 6.29745 1.20697 17.7872
H 8.21682 1.38403 16.8639
O 6.58516 5.43886 16.9097
H 6.08604 5.022 16.1616
H 7.51165 5.1309 16.92
O 1.34266 1.76004 16.9239
H 0.417948 1.42974 16.8416
H 1.79051 1.31072 17.6875
O 9.1337 1.81388 12.4054
H 9.1365 2.79701 12.42
H 9.8464 1.20424 10.865
O 13.0582 4.58848 10.0919
H 13.5273 4.95527 10.8751
H 13.5387 4.94466 9.29361
O 14.4049 5.4269 12.3999
H 15.3461 5.12655 12.4399
H 13.9098 5.00949 13.1533
O 13.0929 4.51799 14.6549
H 13.4951 4.87299 15.4921
H 13.1536 3.53279 14.6199
O 10.4785 0.805774 14.6339
H 10.0753 1.16153 13.804
H 9.55206 1.32114 16.0693
O 10.4942 5.42816 14.6277
H 9.99593 5.10255 13.8371
H 11.436 5.13742 14.5189
O 13.0623 1.8236 10.147
H 13.7691 1.30382 11.6773
H 13.9858 1.28269 13.1762
O 13.1069 1.74024 14.6834
H 13.5709 1.34178 15.467
H 12.163 1.45678 14.7116
O 9.18279 4.52915 16.9097
H 9.10857 3.55469 16.7362
H 9.59077 4.88246 16.0662
O 9.18645 4.56017 12.3968
H 8.22587 4.85662 12.366
H 9.64493 4.79521 11.5428
O 10.4427 5.42141 10.1274
H 10.0838 5.08913 9.27051
H 11.3824 5.13008 10.2001
O 10.4341 0.905013 10.1328
H 10.4357 7.20209 10.1823
H 11.3929 8.46819 10.1729
O 14.369 0.88361 12.3646
H 13.8921 1.14167 17.7199
H 15.3703 5.17837 16.8688
O 14.3763 0.819898 16.9224
H 14.4025 6.44312 16.9648
H 13.8256 8.5856 16.1233
O 14.4213 5.47148 16.9024
H 15.2686 8.55955 16.9057
H 13.6628 8.88245 13.9015
O 9.13441 1.75002 16.8598
H 6.54993 7.21244 16.9274
H 10.5203 7.19633 14.7114
O 1.35748 9.11963 12.3958
H 1.86482 8.84898 11.5912
H 1.28175 10.1058 12.3099
O 5.25315 11.8533 10.1345
H 5.58993 12.2727 10.971
H 4.31834 12.1453 10.1897
O 6.53307 12.7962 12.3997
H 6.12173 12.5899 13.2818
H 6.53127 13.7748 12.3352
O 5.21743 11.8885 14.6524
H 5.20747 10.9146 14.6793
H 4.2706 12.1913 14.7281
O 2.58969 8.18628 14.6412
H 2.16368 8.5792 13.838
H 3.53445 8.48026 14.6217
O 2.6294 12.8157 14.6781
H 2.6156 13.8033 14.7843
H 2.06201 12.495 15.4116
O 5.28504 9.11021 10.1534
H 5.30075 10.0907 10.0532
H 5.63233 8.80305 9.26493
O 5.209 9.11573 14.6418
H 5.69035 8.72427 15.4122
H 5.65548 8.77647 13.8377
O 1.35155 11.9438 16.9059
H 1.72847 12.3131 17.7374
H 0.417305 12.2604 16.9462
O 1.3318 11.9084 12.3926
H 0.468628 12.3992 12.3828
H 1.85548 12.2373 13.1555
O 2.65465 12.8056 10.1141
H 2.07128 12.5138 10.8822
H 2.09015 12.5603 9.32516
O 2.62443 8.17976 10.1182
H 2.62994 7.17911 10.1298
H 3.58651 8.4055 10.1166
O 6.52248 8.23793 12.4139
H 7.42043 8.61047 12.421
H 6.0096 8.5238 11.6005
O 6.54911 8.19573 16.8932
H 7.49443 8.45948 16.9124
H 9.5676 8.79005 17.7617
O 6.53973 12.7943 16.9308
H 6.05026 12.4346 16.1531
H 6.08379 12.4296 17.7139
O 1.30241 9.1514 16.9164
H 1.76102 8.85422 16.1018
H 1.41368 10.1302 16.8888
O 9.18639 9.13189 12.4103
H 9.73543 8.74099 11.6938
H 9.53301 8.7842 13.2525
O 13.0446 11.8755 10.1734
H 13.0059 10.9006 10.2056
H 12.1231 12.2167 10.1851
O 14.3686 12.8699 12.3842
H 13.9302 12.4617 11.5921
H 14.3827 13.8578 12.3226
O 13.0501 11.9481 14.6405
H 13.4117 12.3552 13.8206
H 12.0988 12.2003 14.5548
O 10.4682 8.17849 14.6813
H 11.3747 8.53162 14.6602
H 9.68514 8.79985 16.1511
O 10.4358 12.8208 14.6655
H 9.99011 12.4809 13.8578
H 9.98132 12.3957 15.4196
O 13.0337 9.11155 10.1689
H 13.4812 8.69783 10.9498
H 15.3517 8.50186 12.3593
O 13.0507 9.1652 14.6367
H 13.2006 10.1457 14.7064
H 14.3849 7.22242 12.389
O 9.12525 11.9024 16.9063
H 8.17326 12.1154 17.0589
H 9.14454 10.9199 16.9613
O 9.1255 11.8885 12.3954
H 8.19365 12.222 12.358
H 9.02553 10.9076 12.3125
O 10.4706 12.8181 10.1734
H 10.41 13.7977 10.2636
H 9.87559 12.4806 10.8816
O 10.4477 8.18359 10.1953
H 6.55801 14.5478 7.93585
H 10.4086 14.5382 14.5472
O 14.4127 8.19823 12.4004
H 13.8392 12.3749 16.1862
H 13.8778 12.5413 17.7793
O 14.3413 8.2369 16.8885
H 14.359 14.5494 16.9496
H 6.58163 14.5546 17.1232
O 14.368 12.7766 16.9194
H 14.3443 14.565 7.95837
H 14.339 14.554 3.37621
O 9.16329 9.13626 16.9262
H 2.64467 14.5881 10.0863
H 6.57471 14.556 3.4445
384
 Atoms. Timestep: 90
O 1.34642 1.70585 3.38959
H 1.36805 2.67719 3.30113
H 0.386726 1.41188 3.3643
O 5.30582 4.57097 1.18457
H 5.68423 4.95406 2.01782
H 5.86322 4.79805 0.430943
O 6.5099 5.53952 3.32343
H 6.09447 5.29723 4.16553
H 6.53086 6.52482 3.28232
O 5.28273 4.54414 5.67882
H 4.36927 4.97217 5.75225
H 5.76192 4.95962 6.43337
O 2.59278 0.891613 5.57005
H 2.17272 1.16657 4.72672
H 3.5298 1.24892 5.56543
O 2.62871 5.49653 5.6065
H 2.57374 6.48681 5.59953
H 2.20022 5.20354 6.41319
O 5.2262 1.78799 1.18256
H 5.17975 2.76471 1.22421
H 5.54032 1.51512 2.08527
O 5.26104 1.78209 5.65443
H 5.67093 1.47418 6.47188
H 5.25298 2.7543 5.67114
O 1.42035 4.5961 7.90459
H 1.40004 3.60234 7.91824
H 1.81764 4.84954 8.79341
O 1.3577 4.43037 3.3561
H 1.92326 4.78685 2.64473
H 1.75859 4.82744 4.18655
O 2.61099 5.40278 1.19887
H 2.4093 6.37301 1.15599
H 3.55329 5.25722 0.945916
O 2.6211 0.891177 1.07718
H 2.18632 1.23603 1.88069
H 3.52302 1.30809 1.04017
O 6.58509 0.745401 3.42128
H 6.20987 1.04237 4.27865
H 8.24991 1.42917 3.33576
O 6.46474 0.821524 7.83508
H 5.97873 1.08718 8.64969
H 8.22194 1.3283 7.8912
O 6.55465 5.58369 7.94995
H 7.47392 5.26422 7.86537
H 6.56923 6.56194 7.93851
O 1.29528 1.67185 7.82322
H 1.60867 1.35786 6.9511
H 0.377732 1.29488 7.90465
O 9.17263 1.81507 3.25208
H 9.12025 2.78543 3.22832
H 9.82016 1.11223 1.8745
O 13.052 4.57279 1.04708
H 13.0621 3.59288 1.04725
H 13.5677 4.7919 0.22456
O 14.4502 5.44924 3.3276
H 15.3373 4.99581 3.34113
H 13.9484 5.03657 2.58174
O 13.0825 4.63886 5.65203
H 13.3859 4.94817 4.77198
H 12.1143 4.86901 5.70504
O 10.4848 0.966932 5.5323
H 10.0903 1.31581 4.71276
H 11.4196 1.29296 5.44898
O 10.3787 5.45322 5.64474
H 9.94638 5.24822 4.75873
H 10.365 6.4384 5.71176
O 13.0792 1.76451 1.1374
H 12.1591 1.41765 1.1318
H 13.5772 1.37424 1.92435
O 13.0316 1.82171 5.71894
H 13.5161 1.37701 6.4718
H 13.0969 2.78873 5.85681
O 9.12547 4.44966 7.81865
H 9.00008 3.50164 7.76308
H 9.61058 4.77645 7.00299
O 9.15779 4.56566 3.29623
H 8.2881 4.97901 3.16027
H 9.68383 4.759 2.44773
O 10.395 5.38959 1.03268
H 10.1148 5.04677 0.156495
H 11.3175 5.11392 1.10284
O 10.3899 0.866663 1.10243
H 9.88097 1.24183 0.360943
H 13.822 1.16454 4.26498
O 14.3288 0.854015 3.48973
H 13.874 1.18335 8.66407
H 13.994 5.24057 7.0856
O 14.3756 0.810138 7.90816
H 13.1349 2.82063 10.034
H 12.1221 1.55826 10.0748
O 14.4519 5.54385 7.87413
H 15.3811 5.18229 7.78073
H 14.2329 7.2708 7.86138
O 9.16196 1.69138 7.8534
H 9.49678 1.42274 6.9615
H 9.94082 1.02814 9.25618
O 1.3669 9.14785 3.45832
H 1.85783 8.90645 4.28524
H 1.5056 10.1038 3.54075
O 5.25865 11.9007 1.12659
H 5.24372 10.9099 0.959713
H 4.34887 12.2597 1.183
O 6.53805 12.7717 3.32206
H 7.45719 12.4304 3.29241
H 6.10197 12.3526 2.57367
O 5.22589 11.8304 5.64432
H 5.69264 12.1378 6.49393
H 5.73203 12.2221 4.87653
O 2.62752 8.23481 5.61184
H 3.5666 8.46336 5.57648
H 2.2126 8.56676 6.4334
O 2.62377 12.7938 5.66031
H 2.64453 13.7693 5.69813
H 3.5481 12.4806 5.81164
O 5.1954 9.11257 1.13993
H 4.2448 8.79457 1.12476
H 5.65488 8.76466 0.319606
O 5.22415 9.13092 5.62684
H 5.65017 8.94716 4.73719
H 5.12788 10.1181 5.62234
O 1.24367 11.8994 7.87695
H 1.36904 10.9116 7.79828
H 1.65241 12.2443 7.05591
O 1.36165 11.9435 3.35436
H 0.436154 12.2792 3.36214
H 1.80639 12.3427 4.10076
O 2.59644 12.8165 1.00286
H 2.62901 13.7874 0.975999
H 2.19488 12.4896 1.8532
O 2.603 8.23611 1.10685
H 2.02163 8.62676 0.427179
H 2.21996 8.56775 1.93515
O 6.56651 8.23296 3.29585
H 7.49015 8.61141 3.32138
H 6.10796 8.5578 2.50847
O 6.44598 8.35472 7.84766
H 6.02406 8.69813 7.02808
H 7.42756 8.53361 7.65564
O 6.58308 12.8068 7.96411
H 6.14441 12.6133 8.81885
H 7.48076 12.438 8.013
O 1.33243 9.03726 7.8712
H 0.416256 8.70781 7.88568
H 1.78282 8.72499 8.69145
O 9.11687 9.1716 3.32247
H 9.59849 8.67555 2.60743
H 9.54982 8.85188 4.13292
O 13.0742 11.8485 1.0311
H 13.1903 10.8991 1.27594
H 12.1296 12.0907 1.04086
O 14.4615 12.7381 3.35558
H 13.926 12.4651 4.12861
H 13.9877 12.3792 2.57864
O 13.0319 11.8673 5.56207
H 12.0853 12.1828 5.58402
H 13.4901 12.1984 6.35666
O 10.3911 8.26428 5.61543
H 11.3352 8.59913 5.6513
H 10.0973 8.64406 6.49676
O 10.5036 12.8556 5.57562
H 10.1183 12.658 4.7005
H 10.4602 13.8309 5.66623
O 13.0278 9.06619 1.07776
H 13.4993 8.8036 0.23209
H 13.5552 8.60045 1.77181
O 13.0463 9.18044 5.60609
H 13.4905 8.94399 4.74934
H 13.062 10.14 5.67639
O 9.13985 11.8493 7.84529
H 9.66395 12.12 7.01917
H 9.67208 12.2386 8.59914
O 9.08879 11.8644 3.33798
H 9.16933 10.8377 3.28768
H 9.47097 12.1791 2.49564
O 10.4738 12.7423 1.04143
H 10.0385 12.3879 0.219292
H 10.4971 13.7017 0.854752
O 10.4245 8.17265 1.16925
H 10.4586 7.15908 1.19496
H 11.3413 8.53607 1.16268
O 14.3002 8.19579 3.3899
H 14.4195 7.22812 3.39461
H 15.212 8.51334 3.42746
O 14.2917 8.24231 7.91411
H 14.0152 8.59144 7.02668
H 13.577 8.9203 9.38122
O 14.3121 12.833 7.92553
H 13.9105 12.4428 8.73615
H 15.2198 12.4627 7.77055
O 9.08043 9.11669 7.90812
H 9.08111 10.0879 7.97589
H 9.47785 8.67862 8.68325
O 1.2977 1.75991 12.4119
H 1.77563 1.48228 11.5797
H 0.339773 1.50741 12.3511
O 5.25005 4.55375 10.1661
H 5.68494 4.85132 10.9774
H 5.8334 4.88212 9.46219
O 6.59365 5.56596 12.3212
H 6.2106 5.29172 13.1926
H 6.65885 6.53209 12.3419
O 5.19784 4.51891 14.6337
H 5.10429 3.55374 14.6656
H 4.30018 4.89233 14.7559
O 2.62173 0.825428 14.6633
H 2.26525 1.11685 15.5301
H 2.1363 1.27241 13.9381
O 2.68152 5.41344 14.7403
H 2.5247 6.39646 14.7131
H 2.10063 4.97905 15.417
O 5.24488 1.82264 10.182
H 4.28678 1.59522 10.1909
H 5.26149 2.79694 10.1368
O 5.26336 1.7341 14.6846
H 5.64148 1.27307 15.4786
H 4.36267 1.29374 14.7549
O 1.36456 4.5296 16.955
H 1.32642 3.56126 17.0748
H 1.84781 4.86374 17.7379
O 1.39754 4.52603 12.3833
H 1.49201 3.5537 12.4593
H 2.03953 4.72656 13.0872
O 2.63245 5.53148 10.0726
H 2.26333 5.23634 10.9299
H 3.56519 5.223 10.1026
O 2.67213 0.891373 10.0885
H 2.22171 1.1343 9.25396
H 6.0815 1.3233 11.6575
O 6.59302 0.879898 12.3829
H 6.19996 1.21282 13.2053
H 8.19551 1.48691 12.4104
O 6.63667 0.770923 16.9288
H 6.42782 1.30092 17.753
H 8.16714 1.39694 16.8835
O 6.56226 5.42609 16.923
H 6.18244 4.93515 16.1626
H 7.47289 5.09629 16.9523
O 1.40641 1.76964 16.9451
H 0.461692 1.4993 16.8927
H 1.73445 1.28149 17.7472
O 9.13188 1.81737 12.4031
H 8.97786 2.78038 12.4245
H 9.89108 1.28979 10.8513
O 13.0414 4.60593 10.0306
H 13.5189 4.95178 10.8276
H 13.4812 4.94811 9.22826
O 14.3853 5.42413 12.3967
H 15.3401 5.10727 12.5035
H 13.9294 5.04972 13.2005
O 13.0836 4.54558 14.6562
H 13.5111 4.84611 15.5084
H 13.2018 3.55771 14.7404
O 10.4655 0.743313 14.631
H 10.1281 1.169 13.8325
H 9.54642 1.32033 16.0188
O 10.4869 5.37493 14.6124
H 9.99118 5.10527 13.7857
H 11.4326 5.08685 14.5142
O 13.0602 1.85233 10.1538
H 13.7801 1.24129 11.6164
H 14.0242 1.1336 13.2191
O 13.1509 1.72554 14.6894
H 13.5658 1.33729 15.4893
H 12.2012 1.41131 14.7552
O 9.17497 4.55124 16.9642
H 9.05398 3.57439 16.8072
H 9.5005 4.93605 16.1349
O 9.25263 4.5348 12.4089
H 8.29579 4.87224 12.2281
H 9.71463 4.74229 11.5525
O 10.4556 5.39272 10.1564
H 10.1177 5.01513 9.29682
H 11.4056 5.12324 10.1453
O 10.3936 0.890887 10.1075
H 10.4439 7.20031 10.2081
H 11.4192 8.41612 10.1488
O 14.3706 0.868753 12.3549
H 13.9013 1.12911 17.7154
H 15.4249 5.21835 16.9133
O 14.3669 0.805726 16.9085
H 14.4364 6.45905 16.9812
H 13.8557 8.61659 16.1039
O 14.4835 5.49001 16.8984
H 15.1787 8.63573 16.8543
H 13.6561 8.87328 13.9585
O 9.08627 1.73891 16.794
H 6.50944 7.16504 16.9082
H 10.6064 7.13593 14.7343
O 1.37367 9.09301 12.4265
H 1.8863 8.81939 11.6305
H 1.18641 10.0652 12.3556
O 5.23597 11.814 10.1204
H 5.60934 12.0836 10.9817
H 4.29049 12.0295 10.0161
O 6.54822 12.7551 12.3578
H 6.162 12.6232 13.2474
H 6.54229 13.7152 12.2141
O 5.22633 11.871 14.6515
H 5.26275 10.8981 14.6865
H 4.25778 12.1564 14.7333
O 2.56255 8.14033 14.6196
H 2.123 8.6249 13.854
H 3.50333 8.45498 14.6429
O 2.63869 12.8026 14.708
H 2.66499 13.7882 14.7452
H 2.05468 12.4926 15.4112
O 5.35474 9.09266 10.1833
H 5.33086 10.0678 10.1325
H 5.74153 8.755 9.31387
O 5.18124 9.06564 14.6039
H 5.71907 8.68458 15.3465
H 5.63895 8.77603 13.7914
O 1.37627 11.9772 16.8734
H 1.82711 12.3508 17.6644
H 0.419233 12.2034 16.8717
O 1.31682 11.9234 12.3723
H 0.54726 12.5014 12.4764
H 1.95445 12.245 13.0472
O 2.66068 12.8548 10.0783
H 2.12365 12.4827 10.8817
H 2.1795 12.7162 9.24426
O 2.60693 8.17727 10.096
H 2.4874 7.18419 10.0574
H 3.55956 8.43029 10.1238
O 6.50224 8.24154 12.4501
H 7.38603 8.65425 12.3459
H 6.04347 8.55042 11.5911
O 6.54441 8.14044 16.8673
H 7.47953 8.41758 16.7949
H 9.54786 8.76663 17.7712
O 6.56749 12.7909 16.9518
H 6.11815 12.4116 16.153
H 6.0854 12.4966 17.7336
O 1.27925 9.14865 16.9497
H 1.75163 8.71009 16.1956
H 1.40643 10.1193 16.9116
O 9.26464 9.17041 12.4185
H 9.79905 8.68658 11.7514
H 9.52777 8.86398 13.3001
O 13.0306 11.9195 10.1773
H 12.9759 10.9342 10.2743
H 12.1059 12.2455 10.212
O 14.3345 12.9135 12.3787
H 13.9002 12.5784 11.5594
H 14.321 13.8982 12.2104
O 13.0149 11.9995 14.6328
H 13.3999 12.3366 13.7978
H 12.0606 12.1327 14.7103
O 10.4776 8.10787 14.6842
H 11.3433 8.4948 14.5765
H 9.75339 8.76812 16.2177
O 10.4408 12.8631 14.7094
H 10.027 12.5335 13.873
H 9.95419 12.3943 15.4252
O 13.0123 9.12611 10.1828
H 13.4273 8.69229 10.978
H 15.3794 8.42759 12.32
O 13.0375 9.20455 14.6564
H 13.1845 10.1755 14.7452
H 14.4543 7.22371 12.4827
O 9.13565 11.8929 16.9103
H 8.19102 12.1645 17.0115
H 9.17614 10.911 16.9471
O 9.12105 11.9391 12.381
H 8.21296 12.303 12.3657
H 9.10395 10.9261 12.3402
O 10.4299 12.7767 10.1515
H 10.4149 13.7574 10.2251
H 9.88818 12.3788 10.8725
O 10.453 8.16607 10.2263
H 6.50185 14.5299 7.94786
H 10.3956 14.4873 14.5803
O 14.4331 8.19061 12.431
H 13.8479 12.4121 16.1434
H 13.9669 12.56 17.7862
O 14.3056 8.21083 16.8867
H 14.3826 14.5201 16.9379
H 6.64966 14.4896 17.0749
O 14.4059 12.8004 16.878
H 14.3656 14.5279 7.95732
H 14.3018 14.5557 3.43905
O 9.17642 9.15653 16.9162
H 2.72386 14.6231 10.1048
H 6.58332 14.4586 3.3936
384
 Atoms. Timestep: 80
O 1.3296 1.77193 3.34983
H 1.26933 2.74773 3.23973
H 0.393718 1.43922 3.30476
O 5.28969 4.58094 1.14071
H 5.74008 4.94939 1.93659
H 5.80221 4.87343 0.356256
O 6.51648 5.52676 3.36379
H 6.06831 5.28121 4.19647
H 6.4716 6.50861 3.30932
O 5.24889 4.54759 5.65331
H 4.33104 4.93669 5.65338
H 5.7478 4.86314 6.43731
O 2.60404 0.881029 5.5708
H 2.2142 1.1566 4.70177
H 3.54723 1.22192 5.56757
O 2.62553 5.47616 5.62572
H 2.57008 6.4624 5.63439
H 2.14238 5.18756 6.43633
O 5.26003 1.79949 1.13693
H 5.2379 2.79092 1.14723
H 5.6631 1.50365 1.98523
O 5.25086 1.78697 5.63087
H 5.70542 1.48491 6.45207
H 5.2599 2.76488 5.63192
O 1.36992 4.54827 7.90475
H 1.36631 3.56016 7.891
H 1.73754 4.86466 8.76993
O 1.34739 4.51311 3.35882
H 1.8399 4.82012 2.57379
H 1.71043 4.9155 4.18522
O 2.64563 5.42476 1.14404
H 2.57928 6.40869 1.10541
H 3.61094 5.25552 0.962647
O 2.64592 0.883609 1.09317
H 2.16683 1.20071 1.88824
H 3.54437 1.30054 1.07782
O 6.55104 0.829506 3.39291
H 6.14354 1.12881 4.23647
H 8.18838 1.53508 3.34011
O 6.50285 0.827731 7.87268
H 6.00368 1.21769 8.63682
H 8.22667 1.34095 7.90904
O 6.56034 5.52133 7.90363
H 7.48804 5.20649 7.83729
H 6.60364 6.50371 7.97026
O 1.30587 1.72188 7.83943
H 1.71119 1.4447 6.98904
H 0.395684 1.35986 7.94872
O 9.15071 1.81106 3.30331
H 9.06118 2.78835 3.2953
H 9.91544 1.15542 1.89389
O 13.0634 4.53178 1.05506
H 13.0933 3.55175 1.10417
H 13.4908 4.8495 0.226011
O 14.3925 5.44508 3.32788
H 15.3203 5.06024 3.31814
H 13.9227 5.0295 2.55755
O 13.0679 4.57341 5.61016
H 13.4155 4.88599 4.73838
H 12.1189 4.86713 5.67093
O 10.4622 0.913523 5.5518
H 9.98316 1.26166 4.77334
H 11.4056 1.19534 5.58276
O 10.4221 5.45226 5.60197
H 9.98565 5.19792 4.73383
H 10.4326 6.43688 5.64728
O 13.0798 1.75495 1.11381
H 12.1683 1.35474 1.10597
H 13.5331 1.32587 1.8947
O 13.0628 1.79241 5.65261
H 13.5096 1.42117 6.45174
H 13.1062 2.76212 5.78227
O 9.14548 4.49197 7.83072
H 9.0745 3.52171 7.75118
H 9.69171 4.74792 7.02339
O 9.13288 4.57442 3.31741
H 8.23808 4.95473 3.22563
H 9.64872 4.84844 2.50704
O 10.4241 5.40461 1.04449
H 10.069 5.08558 0.189698
H 11.3448 5.0788 1.10061
O 10.4304 0.884256 1.09243
H 10.0201 1.21672 0.264622
H 13.8783 1.11611 4.22633
O 14.3537 0.840035 3.41395
H 13.8302 1.13941 8.67674
H 13.9251 5.17199 7.07153
O 14.3606 0.843153 7.90161
H 13.033 2.81522 10.1095
H 12.1018 1.6057 10.0536
O 14.407 5.4806 7.8635
H 15.333 5.12663 7.80661
H 14.2309 7.24528 7.82639
O 9.14001 1.7203 7.85308
H 9.54644 1.42961 7.00278
H 9.93213 1.13063 9.30067
O 1.35394 9.13224 3.40645
H 1.80219 8.73202 4.18299
H 1.36639 10.1086 3.35122
O 5.23617 11.8788 1.12032
H 5.13601 10.8937 0.994447
H 4.29355 12.1542 1.20444
O 6.558 12.7993 3.34039
H 7.4877 12.4684 3.30847
H 6.0505 12.3816 2.60882
O 5.24385 11.8944 5.62843
H 5.74058 12.1626 6.44144
H 5.7203 12.3062 4.86309
O 2.63532 8.23594 5.6174
H 3.56988 8.52204 5.68594
H 2.23223 8.58161 6.43783
O 2.62965 12.8043 5.63646
H 2.64743 13.7827 5.64355
H 3.56816 12.5233 5.75664
O 5.21588 9.11075 1.10096
H 4.27988 8.78268 1.06094
H 5.61477 8.78361 0.254163
O 5.24209 9.15216 5.6244
H 5.66674 8.92615 4.7554
H 5.20491 10.1395 5.67471
O 1.29516 11.8776 7.8778
H 1.34143 10.8993 7.79996
H 1.73572 12.2679 7.09897
O 1.34134 11.9082 3.37034
H 0.430934 12.2788 3.37544
H 1.75689 12.2957 4.16983
O 2.61404 12.8125 1.07405
H 2.54989 13.7887 1.13789
H 2.12443 12.5325 1.89239
O 2.60901 8.2142 1.0881
H 2.10759 8.56315 0.331603
H 2.20506 8.46697 1.94383
O 6.54655 8.26083 3.34111
H 7.46892 8.61082 3.28781
H 6.11005 8.59682 2.52941
O 6.53314 8.28608 7.86277
H 6.07296 8.65527 7.08462
H 7.52096 8.45034 7.75783
O 6.57937 12.7883 7.92295
H 6.13964 12.5743 8.76812
H 7.50413 12.4496 7.98198
O 1.32389 9.09046 7.88532
H 0.415138 8.73725 7.8998
H 1.76837 8.7027 8.68326
O 9.14549 9.12532 3.34903
H 9.57001 8.70756 2.56083
H 9.58556 8.83219 4.1734
O 13.0505 11.8446 1.08929
H 13.0585 10.8722 1.27688
H 12.0962 12.0687 1.03168
O 14.3896 12.7597 3.36911
H 13.8792 12.4543 4.1415
H 13.926 12.3971 2.5837
O 13.0377 11.887 5.61626
H 12.1179 12.2584 5.70122
H 13.4642 12.2116 6.43552
O 10.4411 8.23966 5.6401
H 11.398 8.48331 5.57221
H 9.98112 8.52241 6.47524
O 10.4526 12.8396 5.60424
H 10.0477 12.5638 4.74278
H 10.4597 13.8222 5.59592
O 13.0388 9.06633 1.09107
H 13.5326 8.83712 0.268511
H 13.5084 8.6959 1.87246
O 13.0521 9.14693 5.60335
H 13.5365 8.89742 4.78048
H 13.1506 10.1165 5.71979
O 9.18086 11.8998 7.88528
H 9.67243 12.1994 7.0687
H 9.67438 12.1935 8.69061
O 9.13875 11.8683 3.33655
H 9.16915 10.8551 3.33002
H 9.58169 12.1636 2.51251
O 10.4519 12.7865 1.06469
H 9.95734 12.4184 0.290667
H 10.4751 13.7675 0.998132
O 10.4478 8.17948 1.12439
H 10.4956 7.17798 1.19925
H 11.3796 8.49629 1.1853
O 14.3517 8.19917 3.36404
H 14.3976 7.2034 3.356
H 15.2546 8.56052 3.43486
O 14.3163 8.21756 7.89799
H 14.0286 8.56911 7.00899
H 13.5886 8.82093 9.38505
O 14.3339 12.813 7.92838
H 13.9572 12.354 8.72028
H 15.2331 12.4089 7.86772
O 9.1286 9.14252 7.90398
H 9.19661 10.1142 8.05299
H 9.55901 8.82835 8.73857
O 1.33061 1.74349 12.3995
H 1.73387 1.45601 11.5362
H 0.385365 1.463 12.3052
O 5.27097 4.54792 10.1513
H 5.70581 4.85946 10.9778
H 5.77882 4.903 9.38289
O 6.55988 5.50377 12.3852
H 6.11484 5.22463 13.2249
H 6.57389 6.48396 12.3917
O 5.22353 4.51355 14.6485
H 5.12609 3.53264 14.6356
H 4.31903 4.86412 14.7661
O 2.64202 0.861734 14.66
H 2.14174 1.13445 15.4849
H 2.11484 1.29621 13.9518
O 2.65094 5.4297 14.7174
H 2.55943 6.415 14.7194
H 2.10442 5.12779 15.4866
O 5.23928 1.78208 10.165
H 4.28616 1.51823 10.1518
H 5.29415 2.76285 10.1369
O 5.24351 1.74411 14.6811
H 5.77655 1.43355 15.4455
H 4.31579 1.42588 14.6106
O 1.34511 4.51933 16.9536
H 1.3283 3.54247 17.0043
H 1.83457 4.87057 17.7416
O 1.38114 4.50254 12.4188
H 1.36924 3.52693 12.338
H 1.93565 4.93794 13.1193
O 2.64138 5.45034 10.1246
H 2.20815 5.18853 10.9617
H 3.61162 5.26467 10.1519
O 2.64353 0.861938 10.102
H 2.15489 1.17256 9.30962
H 6.08666 1.30129 11.6317
O 6.56311 0.882685 12.3938
H 6.13426 1.21918 13.2087
H 8.23912 1.38925 12.3597
O 6.58024 0.825856 16.9166
H 6.29753 1.20834 17.7881
H 8.2159 1.37891 16.8592
O 6.58894 5.43791 16.9103
H 6.08766 5.02118 16.1632
H 7.51505 5.12918 16.9178
O 1.3401 1.75947 16.9265
H 0.415867 1.42771 16.844
H 1.78878 1.3104 17.6896
O 9.13043 1.81415 12.4037
H 9.13401 2.79722 12.4187
H 9.84186 1.20539 10.8616
O 13.0591 4.59084 10.0911
H 13.5296 4.95632 10.8741
H 13.5394 4.94647 9.29254
O 14.4092 5.42522 12.3991
H 15.3503 5.12517 12.4393
H 13.9139 5.00658 13.1518
O 13.0968 4.51153 14.6519
H 13.4978 4.86711 15.4893
H 13.1563 3.52619 14.6179
O 10.4787 0.800727 14.6287
H 10.0753 1.15783 13.7997
H 9.55092 1.31447 16.0637
O 10.4997 5.42658 14.6215
H 10.0006 5.102 13.831
H 11.4409 5.13387 14.5127
O 13.059 1.82557 10.146
H 13.7676 1.30487 11.6764
H 13.9855 1.28187 13.175
O 13.1066 1.7342 14.6834
H 13.5701 1.33557 15.4672
H 12.1627 1.4508 14.7102
O 9.18517 4.52309 16.9008
H 9.11027 3.54902 16.727
H 9.59373 4.87716 16.0579
O 9.18674 4.55966 12.3933
H 8.22629 4.85701 12.3664
H 9.64338 4.79516 11.5383
O 10.4423 5.42109 10.1246
H 10.0854 5.08991 9.26655
H 11.3824 5.13108 10.1984
O 10.4307 0.90646 10.1304
H 10.4376 7.20329 10.1802
H 11.3977 8.46706 10.1722
O 14.3681 0.883913 12.3625
H 13.8905 1.13798 17.72
H 15.3715 5.17669 16.8696
O 14.3749 0.814735 16.9231
H 14.4025 6.44036 16.9627
H 13.8289 8.58418 16.1207
O 14.422 5.46881 16.9004
H 15.2711 8.55731 16.9042
H 13.6701 8.8817 13.8984
O 9.13385 1.74384 16.854
H 6.55441 7.21163 16.926
H 10.5262 7.19492 14.7062
O 1.3649 9.11892 12.3945
H 1.87281 8.84964 11.5898
H 1.28578 10.1048 12.3088
O 5.24883 11.8518 10.1362
H 5.58332 12.2708 10.9739
H 4.31357 12.1426 10.1902
O 6.52272 12.7953 12.4041
H 6.11171 12.5904 13.2865
H 6.5226 13.7738 12.3384
O 5.20892 11.8873 14.6575
H 5.20162 10.9134 14.6828
H 4.26142 12.1879 14.7329
O 2.59209 8.18518 14.6425
H 2.16715 8.57788 13.8386
H 3.53711 8.47789 14.6229
O 2.62057 12.8129 14.6823
H 2.60848 13.8006 14.7877
H 2.05278 12.4937 15.4163
O 5.2919 9.1097 10.1514
H 5.30501 10.0903 10.0519
H 5.64034 8.80444 9.26283
O 5.21104 9.11456 14.6417
H 5.69405 8.72329 15.4112
H 5.65725 8.77694 13.8369
O 1.34365 11.9444 16.9115
H 1.72015 12.3146 17.7426
H 0.408525 12.2578 16.952
O 1.32666 11.9071 12.3938
H 0.462989 12.397 12.3845
H 1.84944 12.2353 13.1577
O 2.65066 12.8051 10.1156
H 2.06713 12.5151 10.8842
H 2.08504 12.5605 9.32736
O 2.6315 8.17965 10.1156
H 2.63537 7.17903 10.129
H 3.59384 8.40404 10.113
O 6.52511 8.23753 12.4139
H 7.42376 8.60848 12.4208
H 6.01362 8.52257 11.5994
O 6.55407 8.19468 16.8905
H 7.49962 8.45789 16.9077
H 9.57261 8.78718 17.7563
O 6.53278 12.7937 16.9341
H 6.04147 12.4346 16.1573
H 6.07741 12.4302 17.7181
O 1.30487 9.15177 16.917
H 1.76346 8.85594 16.1019
H 1.41396 10.1308 16.8906
O 9.18871 9.13093 12.4079
H 9.73816 8.74134 11.6908
H 9.53715 8.78425 13.2498
O 13.0396 11.8731 10.1796
H 13.003 10.8981 10.2094
H 12.1178 12.2132 10.1903
O 14.3637 12.87 12.3882
H 13.9251 12.4604 11.5971
H 14.3798 13.8576 12.3235
O 13.0436 11.9448 14.6422
H 13.4058 12.3548 13.8241
H 12.0919 12.1954 14.5555
O 10.4746 8.17717 14.6764
H 11.3814 8.52976 14.6546
H 9.69106 8.79849 16.1457
O 10.4288 12.8166 14.6628
H 9.98186 12.4775 13.8555
H 9.97333 12.3939 15.4175
O 13.0388 9.1094 10.1692
H 13.4879 8.69551 10.9489
H 15.36 8.49973 12.3561
O 13.0564 9.16297 14.6328
H 13.2035 10.1437 14.7033
H 14.3923 7.22069 12.3876
O 9.11836 11.9008 16.9052
H 8.16611 12.1116 17.0591
H 9.14092 10.9185 16.9587
O 9.11512 11.8872 12.3945
H 8.18278 12.2189 12.3588
H 9.01823 10.906 12.311
O 10.4658 12.8191 10.1767
H 10.406 13.7988 10.266
H 9.86773 12.4823 10.8824
O 10.4518 8.18469 10.1933
H 6.55686 14.5509 7.93834
H 10.4068 14.5333 14.5419
O 14.421 8.1965 12.3977
H 13.8309 12.37 16.1896
H 13.8685 12.5373 17.7828
O 14.3438 8.23524 16.8863
H 14.3555 14.5443 16.9512
H 6.57671 14.5546 17.1256
O 14.3592 12.7717 16.923
H 14.3398 14.5657 7.95971
H 14.3366 14.5522 3.37679
O 9.16876 9.13408 16.9208
H 2.64341 14.5877 10.087
H 6.57441 14.5587 3.448
384
 Atoms. Timestep: 90
O 1.34471 1.70765 3.39071
H 1.36621 2.679 3.30283
H 0.385243 1.41288 3.36415
O 5.31033 4.57251 1.18538
H 5.68759 4.95726 2.01834
H 5.86773 4.79927 0.431731
O 6.51068 5.5459 3.32382
H 6.09588 5.30322 4.16609