ITEM: TIMESTEP
0
ITEM: NUMBER OF ATOMS
384
ITEM: BOX BOUNDS xy xz yz pp pp pp
0.0000000000000000e+00 1.5645677531129000e+01 0.0000000000000000e+00
0.0000000000000000e+00 1.4707145294364000e+01 0.0000000000000000e+00
0.0000000000000000e+00 1.8073037030847999e+01 0.0000000000000000e+00
ITEM: ATOMS id type mass x y z
1 1 15.9994 1.34478 1.76218 3.18563
2 2 1.008 1.38216 2.76124 3.19502
3 2 1.008 0.406774 1.54521 3.13934
4 1 15.9994 5.71445 5.125 0.920915
5 2 1.008 5.99611 5.21777 1.8484
6 2 1.008 5.63314 4.1472 0.796132
7 1 15.9994 6.56662 5.64697 3.59441
8 2 1.008 6.02761 5.25074 4.32648
9 2 1.008 6.48972 6.61481 3.66269
10 1 15.9994 5.16696 4.56877 5.612
11 2 1.008 4.21973 4.83497 5.65253
12 2 1.008 5.57453 4.83863 6.46141
13 1 15.9994 2.58814 0.93437 5.64465
14 2 1.008 2.20864 1.20123 4.78936
15 2 1.008 3.5421 1.16483 5.61197
16 1 15.9994 2.55672 5.34255 5.63436
17 2 1.008 2.49228 6.31278 5.61078
18 2 1.008 2.06618 5.04705 6.44374
19 1 15.9994 5.39906 2.40903 0.777424
20 2 1.008 4.49519 2.06425 0.702547
21 2 1.008 5.74214 1.97678 1.59106
22 1 15.9994 5.23895 1.71311 5.55728
23 2 1.008 5.72472 1.43083 6.36963
24 2 1.008 5.22848 2.68689 5.59017
25 1 15.9994 1.23181 4.54569 7.83341
26 2 1.008 1.19543 3.56927 7.83733
27 2 1.008 1.69382 4.79285 8.65614
28 1 15.9994 1.44113 4.3908 3.21496
29 2 1.008 2.00363 4.77675 2.51001
30 2 1.008 1.81686 4.70604 4.05706
31 1 15.9994 2.96374 5.58461 1.23086
32 2 1.008 2.92043 6.54546 1.32177
33 2 1.008 3.91473 5.37889 1.10811
34 1 15.9994 2.85458 1.05785 0.875791
35 2 1.008 2.34034 1.27943 1.66773
36 2 1.008 3.1707 0.160564 1.06326
37 1 15.9994 6.38816 1.13066 3.03851
38 2 1.008 5.97806 1.26255 3.9156
39 2 1.008 7.33225 1.3143 3.16392
40 1 15.9994 6.56093 1.00623 7.82161
41 2 1.008 6.15903 1.18046 8.69298
42 2 1.008 7.51704 1.15399 7.91967
43 1 15.9994 6.49019 5.38349 7.93127
44 2 1.008 7.41262 5.04567 7.88613
45 2 1.008 6.55676 6.35787 7.9319
46 1 15.9994 1.31538 1.72994 7.8006
47 2 1.008 1.81644 1.4516 6.97945
48 2 1.008 0.501807 1.2167 7.78105
49 1 15.9994 9.17063 1.9432 3.30302
50 2 1.008 9.07721 2.9013 3.46478
51 2 1.008 9.59929 1.89367 2.43101
52 1 15.9994 13.1576 4.74884 1.1632
53 2 1.008 13.248 2.83446 1.53692
54 2 1.008 13.6481 4.77945 0.340244
55 1 15.9994 14.5741 5.73193 3.30854
56 2 1.008 15.3095 5.21448 3.63724
57 2 1.008 13.7122 5.1772 1.85119
58 1 15.9994 12.8773 4.7172 5.40714
59 2 1.008 13.2596 5.14766 4.62646
60 2 1.008 11.9439 5.05014 5.49934
61 1 15.9994 10.3625 0.807007 5.5485
62 2 1.008 9.91243 1.13971 4.74846
63 2 1.008 11.3052 0.893221 5.35629
64 1 15.9994 10.3897 5.58832 5.63996
65 2 1.008 9.8846 5.29021 4.84022
66 2 1.008 10.3453 6.56571 5.64351
67 1 15.9994 13.1535 1.8693 1.59223
68 2 1.008 11.4271 1.81645 1.06659
69 2 1.008 13.4536 1.63078 2.47953
70 1 15.9994 13.0534 2.0121 5.15502
71 2 1.008 13.873 2.12261 6.97695
72 2 1.008 12.8754 2.98519 5.20901
73 1 15.9994 9.09143 4.53759 7.86497
74 2 1.008 9.28794 2.63974 7.88595
75 2 1.008 9.57256 4.9239 7.10445
76 1 15.9994 9.06768 4.75683 3.48814
77 2 1.008 8.12918 5.08064 3.50195
78 2 1.008 9.45146 5.00892 2.63104
79 1 15.9994 10.3155 5.28255 0.949187
80 2 1.008 9.87566 4.5507 0.490315
81 2 1.008 11.2409 4.99956 1.02901
82 1 15.9994 10.5128 2.056 0.792515
83 2 1.008 10.2078 1.36325 0.204738
84 2 1.008 14.9043 1.66897 5.06587
85 1 15.9994 14.2741 1.99401 4.40347
86 2 1.008 14.2365 1.97787 8.46069
87 2 1.008 13.7705 5.09818 6.95609
88 1 15.9994 14.6072 2.26662 7.59243
89 2 1.008 13.0495 2.95675 9.96237
90 2 1.008 12.4524 1.52555 10.0187
91 1 15.9994 14.3621 5.07059 7.73559
92 2 1.008 14.6302 4.13235 7.71472
93 2 1.008 14.5506 7.01139 7.82812
94 1 15.9994 9.35542 1.6721 7.96738
95 2 1.008 9.72052 1.352 7.11457
96 2 1.008 10.35 1.15628 9.39871
97 1 15.9994 1.44633 9.33178 3.33726
98 2 1.008 1.82992 8.94105 4.15295
99 2 1.008 1.47558 10.2881 3.46572
100 1 15.9994 5.32439 11.6368 0.924724
101 2 1.008 5.44634 10.6732 0.870792
102 2 1.008 3.76261 12.3923 1.03131
103 1 15.9994 6.63431 12.6875 3.37554
104 2 1.008 7.58134 12.4252 3.35617
105 2 1.008 5.79577 11.898 1.73558
106 1 15.9994 5.12862 11.8658 5.58318
107 2 1.008 6.10429 12.2465 7.1214
108 2 1.008 5.60698 12.1391 4.77148
109 1 15.9994 2.53819 8.21372 5.57519
110 2 1.008 3.47948 8.47153 5.65512
111 2 1.008 2.10398 8.49875 6.39928
112 1 15.9994 2.52984 13.0101 5.60224
113 2 1.008 2.51552 13.9718 5.56366
114 2 1.008 4.25957 12.2972 5.56506
115 1 15.9994 5.36214 8.6857 0.950155
116 2 1.008 4.37875 8.58332 0.997781
117 2 1.008 5.65771 7.92075 0.454452
118 1 15.9994 5.20149 9.07884 5.71042
119 2 1.008 5.64352 8.85076 4.8607
120 2 1.008 5.12931 10.0533 5.7016
121 1 15.9994 1.31002 11.8204 7.87849
122 2 1.008 1.15633 10.1032 7.89836
123 2 1.008 1.70404 12.2096 7.07769
124 1 15.9994 1.32482 12.2288 3.25759
125 2 1.008 0.407995 12.3111 3.0546
126 2 1.008 2.05244 12.7569 4.78057
127 1 15.9994 2.93556 12.9118 1.16639
128 2 1.008 2.71986 13.3529 0.342128
129 2 1.008 1.87445 12.469 2.46087
130 1 15.9994 2.6836 8.48838 1.15866
131 2 1.008 2.03278 8.43354 0.455302
132 2 1.008 2.2088 8.81074 1.97117
133 1 15.9994 6.52677 8.48021 3.4252
134 2 1.008 7.46243 8.75965 3.36803
135 2 1.008 6.12038 8.5836 2.53801
136 1 15.9994 6.5626 8.2031 7.92915
137 2 1.008 6.11125 8.5212 7.11568
138 2 1.008 7.48915 8.51478 7.88659
139 1 15.9994 6.53546 12.4678 7.96144
140 2 1.008 5.88093 14.6098 8.90181
141 2 1.008 7.47899 12.2276 7.87456
142 1 15.9994 1.2108 9.11822 7.90954
143 2 1.008 0.309909 8.77817 7.93499
144 2 1.008 2.20516 8.51185 9.32803
145 1 15.9994 9.19438 9.25523 3.38892
146 2 1.008 9.61126 8.80881 2.60939
147 2 1.008 9.63815 8.89855 4.19237
148 1 15.9994 13.1462 11.7983 1.12974
149 2 1.008 13.1673 10.8266 1.18139
150 2 1.008 12.2206 12.0313 0.965963
151 1 15.9994 14.077 13.1208 3.35513
152 2 1.008 13.4704 12.2687 4.78315
153 2 1.008 13.8075 12.672 2.52362
154 1 15.9994 13.0658 11.8025 5.543
155 2 1.008 12.149 12.1191 5.57293
156 2 1.008 14.0803 11.7457 7.13526
157 1 15.9994 10.4543 8.35902 5.63079
158 2 1.008 11.4019 8.59864 5.70769
159 2 1.008 10.0256 8.61756 6.48115
160 1 15.9994 10.4302 12.9148 5.53341
161 2 1.008 10.001 12.5566 4.71968
162 2 1.008 10.4482 13.8685 5.42999
163 1 15.9994 13.2178 8.95336 1.35246
164 2 1.008 13.6649 8.55834 0.605145
165 2 1.008 13.7302 8.70484 2.15536
166 1 15.9994 13.1673 9.04018 5.75307
167 2 1.008 14.0504 8.60436 4.42549
168 2 1.008 13.2035 10.0184 5.81068
169 1 15.9994 9.27545 11.8282 7.9015
170 2 1.008 9.73789 12.2046 7.12941
171 2 1.008 9.70539 12.1993 8.69679
172 1 15.9994 9.23517 11.8822 3.31122
173 2 1.008 9.2637 10.8817 3.33284
174 2 1.008 9.63098 12.1418 2.46112
175 1 15.9994 10.275 12.5573 0.694973
176 2 1.008 9.8423 11.9868 0.0453776
177 2 1.008 10.2356 13.4453 0.326494
178 1 15.9994 10.3471 8.18384 1.19168
179 2 1.008 10.1978 7.23869 1.01234
180 2 1.008 11.3073 8.29908 1.26663
181 1 15.9994 14.637 8.34802 3.6463
182 2 1.008 14.7233 6.6774 3.5466
183 2 1.008 15.42 8.88876 3.75412
184 1 15.9994 14.4858 7.97672 7.76748
185 2 1.008 13.6654 8.70876 6.55118
186 2 1.008 14.04 8.27424 8.58344
187 1 15.9994 14.6442 11.5715 7.90772
188 2 1.008 14.0715 11.6523 8.68431
189 2 1.008 14.7408 14.064 7.53087
190 1 15.9994 9.19852 9.07094 7.92738
191 2 1.008 9.24195 10.0456 7.98384
192 2 1.008 9.66877 8.72879 8.72796
193 1 15.9994 1.14973 1.92075 12.3995
194 2 1.008 2.16833 1.29493 10.898
195 2 1.008 0.227823 1.69448 12.2557
196 1 15.9994 5.16582 4.48725 10.1699
197 2 1.008 5.62882 4.84968 10.9532
198 2 1.008 5.66062 4.80251 9.3836
199 1 15.9994 6.44861 5.45282 12.4629
200 2 1.008 5.98004 5.16966 13.2814
201 2 1.008 6.47384 6.42935 12.4899
202 1 15.9994 5.15291 4.71719 14.7624
203 2 1.008 5.27422 2.8934 14.7352
204 2 1.008 4.23136 5.04304 14.7188
205 1 15.9994 2.47115 1.53812 14.8118
206 2 1.008 2.32086 2.47698 15.001
207 2 1.008 2.04331 1.43199 13.9385
208 1 15.9994 2.51801 5.60986 14.7315
209 2 1.008 2.4922 6.59044 14.7296
210 2 1.008 2.13939 5.31103 15.5789
211 1 15.9994 5.34789 1.65952 10.3051
212 2 1.008 4.42157 1.33405 10.284
213 2 1.008 5.27233 2.63219 10.2575
214 1 15.9994 5.31978 1.91618 14.7556
215 2 1.008 6.23425 1.35605 16.2028
216 2 1.008 4.39532 1.61712 14.6785
217 1 15.9994 1.76878 4.5244 17.2072
218 2 1.008 1.50311 3.59713 17.3443
219 2 1.008 2.54289 4.6467 17.7704
220 1 15.9994 1.24275 4.5651 12.4143
221 2 1.008 1.18706 2.92067 12.3901
222 2 1.008 1.68433 4.96259 13.1852
223 1 15.9994 2.58515 5.39693 10.1594
224 2 1.008 1.7349 4.88286 11.6249
225 2 1.008 3.51036 5.06053 10.1474
226 1 15.9994 2.70036 0.920424 10.1758
227 2 1.008 2.27265 1.20613 9.34929
228 2 1.008 6.38962 1.1873 11.7331
229 1 15.9994 6.94099 1.02416 12.5268
230 2 1.008 6.39747 1.29702 13.2839
231 2 1.008 8.56623 1.47017 12.5064
232 1 15.9994 6.75044 1.11626 16.9989
233 2 1.008 6.27656 1.51645 17.7344
234 2 1.008 8.47277 1.80933 16.9642
235 1 15.9994 6.26745 5.85761 16.9954
236 2 1.008 5.55983 5.14814 15.5516
237 2 1.008 7.20337 5.54587 17.0637
238 1 15.9994 1.20007 1.74725 17.4139
239 2 1.008 0.418159 1.52838 16.8892
240 2 1.008 1.91308 1.30478 16.9299
241 1 15.9994 9.49037 1.83789 12.4792
242 2 1.008 9.34992 2.80583 12.4152
243 2 1.008 10.4237 1.18374 10.9535
244 1 15.9994 12.8631 4.79907 10.0354
245 2 1.008 13.3326 5.05035 10.8545
246 2 1.008 13.4306 5.02533 9.26766
247 1 15.9994 14.1232 5.16878 12.4904
248 2 1.008 14.52 4.27107 12.4556
249 2 1.008 13.4686 5.05706 13.216
250 1 15.9994 12.5319 4.73605 14.6518
251 2 1.008 13.1468 4.87856 15.4087
252 2 1.008 12.3057 3.78201 14.6438
253 1 15.9994 10.8813 1.37124 14.6836
254 2 1.008 10.4045 1.52526 13.8134
255 2 1.008 9.82529 1.98705 16.2247
256 1 15.9994 10.0657 5.85507 14.6105
257 2 1.008 9.39202 5.07467 13.1856
258 2 1.008 10.9783 5.50294 14.6881
259 1 15.9994 13.3185 2.01606 9.97066
260 2 1.008 14.1567 2.10972 11.5681
261 2 1.008 13.6206 2.11039 12.9946
262 1 15.9994 12.1387 2.02728 14.4608
263 2 1.008 14.7169 1.0197 16.1378
264 2 1.008 12.6792 1.64943 15.1888
265 1 15.9994 8.86085 5.02619 17.066
266 2 1.008 9.01631 4.05666 17.1004
267 2 1.008 9.24495 5.30336 16.2156
268 1 15.9994 9.04744 4.62272 12.3822
269 2 1.008 8.08745 4.83295 12.3801
270 2 1.008 9.82558 5.17397 10.9855
271 1 15.9994 10.2506 5.55743 10.1776
272 2 1.008 9.50931 4.88625 8.67726
273 2 1.008 11.1765 5.23008 10.1493
274 1 15.9994 10.9195 0.917238 10.1596
275 2 1.008 10.365 7.19294 10.1777
276 2 1.008 11.4331 8.35068 10.1653
277 1 15.9994 14.4005 2.37062 12.4845
278 2 1.008 13.57 0.664009 17.1079
279 2 1.008 14.129 4.80725 17.4784
280 1 15.9994 13.8868 1.33998 16.5014
281 2 1.008 14.3022 6.21011 16.8322
282 2 1.008 13.9476 8.40601 16.0716
283 1 15.9994 14.3228 5.24409 16.6508
284 2 1.008 15.2629 8.29018 16.8666
285 2 1.008 13.7563 8.68532 13.7854
286 1 15.9994 9.33072 2.27685 17.009
287 2 1.008 6.2896 6.8132 17.136
288 2 1.008 10.1778 6.82267 14.5386
289 1 15.9994 1.50813 9.32349 12.4023
290 2 1.008 1.88863 8.89886 11.6017
291 2 1.008 1.65675 10.2717 12.3023
292 1 15.9994 5.26711 11.8336 10.2538
293 2 1.008 5.72587 12.0452 9.40584
294 2 1.008 4.37149 12.208 10.1656
295 1 15.9994 6.6816 12.8783 12.3866
296 2 1.008 6.16791 12.6674 13.1842
297 2 1.008 6.16032 12.527 11.6308
298 1 15.9994 5.16675 12.2003 14.659
299 2 1.008 5.1987 10.2793 14.4283
300 2 1.008 4.25951 12.5532 14.7061
301 1 15.9994 2.61421 8.39812 14.6761
302 2 1.008 2.19174 8.70065 13.8341
303 2 1.008 3.55495 8.66604 14.6074
304 1 15.9994 2.50817 13.1833 14.7615
305 2 1.008 2.5038 14.1416 14.8656
306 2 1.008 2.09447 12.8111 15.5912
307 1 15.9994 5.26616 9.02846 10.1554
308 2 1.008 5.26049 10.0066 10.1574
309 2 1.008 5.7449 8.74502 9.33936
310 1 15.9994 5.22718 9.31191 14.5335
311 2 1.008 6.01069 9.09598 16.186
312 2 1.008 5.73272 8.95057 13.7648
313 1 15.9994 1.47859 12.1452 16.9479
314 2 1.008 1.54465 11.1523 16.9635
315 2 1.008 0.559411 12.3277 17.1513
316 1 15.9994 1.3481 12.2727 12.4373
317 2 1.008 0.401808 12.1633 12.5595
318 2 1.008 1.70902 12.5951 13.2928
319 1 15.9994 2.65564 13.0094 10.1418
320 2 1.008 2.14988 12.7832 10.9541
321 2 1.008 1.77391 12.2336 8.62041
322 1 15.9994 2.65215 8.20667 10.1404
323 2 1.008 2.63721 6.3734 10.1446
324 2 1.008 3.59137 8.48649 10.0803
325 1 15.9994 6.57242 8.27019 12.4343
326 2 1.008 7.49286 8.59539 12.3578
327 2 1.008 6.12371 8.5164 11.5926
328 1 15.9994 6.39579 9.17815 17.0842
329 2 1.008 7.35193 9.03751 16.967
330 2 1.008 9.66846 8.79447 17.7401
331 1 15.9994 6.42868 12.1441 17.2426
332 2 1.008 5.55455 12.3145 15.5451
333 2 1.008 6.28796 11.1918 17.4345
334 1 15.9994 1.50541 9.48938 16.875
335 2 1.008 1.73767 8.91946 17.5947
336 2 1.008 1.9035 9.06469 16.0682
337 1 15.9994 9.15685 9.26286 12.2665
338 2 1.008 9.65412 8.87757 11.5027
339 2 1.008 9.65616 9.00598 13.0736
340 1 15.9994 13.0219 11.627 10.3131
341 2 1.008 13.1768 9.80891 10.292
342 2 1.008 12.158 12.0712 10.3001
343 1 15.9994 14.5048 12.6009 12.4042
344 2 1.008 13.5385 12.0367 11.0356
345 2 1.008 15.0387 13.3926 12.4582
346 1 15.9994 13.1343 11.9227 14.694
347 2 1.008 14.0754 12.4722 13.2765
348 2 1.008 12.2022 12.215 14.6458
349 1 15.9994 10.5053 8.6086 14.5547
350 2 1.008 11.4696 8.76748 14.5812
351 2 1.008 10.1338 8.85536 15.4265
352 1 15.9994 10.4739 12.8202 14.5239
353 2 1.008 9.9763 12.4705 13.7331
354 2 1.008 9.68116 12.2568 16.1428
355 1 15.9994 13.192 8.8339 10.1972
356 2 1.008 13.6688 8.48094 10.9743
357 2 1.008 15.5524 7.97737 12.2429
358 1 15.9994 13.2688 9.08467 14.537
359 2 1.008 13.3279 10.0536 14.4615
360 2 1.008 14.557 6.79275 12.4529
361 1 15.9994 9.34167 11.9561 17.0057
362 2 1.008 8.39904 12.1844 17.0239
363 2 1.008 9.39352 10.2065 17.097
364 1 15.9994 9.15986 11.9515 12.3786
365 2 1.008 8.20771 12.252 12.3861
366 2 1.008 9.14802 10.962 12.3072
367 1 15.9994 10.4383 12.8763 10.2136
368 2 1.008 10.3715 13.8362 10.2294
369 2 1.008 9.94404 12.5546 11.0141
370 1 15.9994 10.4664 8.18443 10.1457
371 2 1.008 5.62824 0.508995 9.2541
372 2 1.008 10.4295 13.7797 14.4506
373 1 15.9994 14.6258 7.78236 12.4135
374 2 1.008 13.4705 12.2161 15.5591
375 2 1.008 14.0048 12.1984 17.9542
376 1 15.9994 14.3381 8.03064 16.8894
377 2 1.008 14.2632 13.6369 17.5077
378 2 1.008 6.08787 12.6316 17.997
379 1 15.9994 14.2274 12.7439 17.191
380 2 1.008 14.6173 0.0607065 7.32159
381 2 1.008 14.9885 13.3927 3.22881
382 1 15.9994 9.3028 9.23314 16.9645
383 2 1.008 2.74509 13.9663 10.1436
384 2 1.008 6.642 13.6519 3.29192
ITEM: TIMESTEP
500
ITEM: NUMBER OF ATOMS
384
ITEM: BOX BOUNDS xy xz yz pp pp pp
0.0000000000000000e+00 1.5645677531129000e+01 0.0000000000000000e+00
0.0000000000000000e+00 1.4707145294364000e+01 0.0000000000000000e+00
0.0000000000000000e+00 1.8073037030847999e+01 0.0000000000000000e+00
ITEM: ATOMS id type mass x y z
1 1 15.9994 1.23077 1.52364 3.28976
2 2 1.008 1.12938 2.51504 3.36457
3 2 1.008 0.349825 1.10707 3.07718
4 1 15.9994 5.60963 4.98446 1.48928
5 2 1.008 6.01666 5.37315 2.31843
6 2 1.008 5.66297 4.0219 1.47016
7 1 15.9994 6.62967 5.85914 3.71111
8 2 1.008 6.07202 5.55194 4.47199
9 2 1.008 6.64554 6.85837 3.61601
10 1 15.9994 5.2733 4.65913 5.77382
11 2 1.008 4.31495 4.85143 5.77842
12 2 1.008 5.65603 5.02768 6.62761
13 1 15.9994 2.6447 1.09799 5.61195
14 2 1.008 2.19548 1.05125 4.73245
15 2 1.008 3.6097 1.26518 5.416
16 1 15.9994 2.56124 5.43272 5.57285
17 2 1.008 2.49479 6.36945 5.63726
18 2 1.008 2.23688 5.06119 6.42777
19 1 15.9994 5.40554 2.2064 1.09926
20 2 1.008 4.56425 1.74531 1.18825
21 2 1.008 5.86069 1.84273 1.89514
22 1 15.9994 5.15924 1.7179 5.43257
23 2 1.008 5.68161 1.43901 6.18569
24 2 1.008 5.22223 2.66337 5.44143
25 1 15.9994 1.62454 4.53742 7.86714
26 2 1.008 1.6215 3.58667 8.00123
27 2 1.008 1.92985 4.98121 8.7043
28 1 15.9994 1.5154 4.263 3.42444
29 2 1.008 2.09804 4.55845 2.65469
30 2 1.008 1.79684 4.81737 4.15512
31 1 15.9994 3.25185 5.49357 1.55371
32 2 1.008 4.0145 5.49122 2.14612
33 2 1.008 3.78776 5.19728 0.827917
34 1 15.9994 2.99521 0.935984 1.05712
35 2 1.008 2.67842 0.93807 1.98164
36 2 1.008 3.12563 -0.0250044 0.90983
37 1 15.9994 6.41611 0.817749 3.32644
38 2 1.008 5.94513 1.05514 4.12173
39 2 1.008 7.35929 1.07424 3.49402
40 1 15.9994 6.64273 1.48617 7.54832
41 2 1.008 6.30855 0.92727 8.27405
42 2 1.008 7.5807 1.28086 7.62975
43 1 15.9994 6.48288 5.67224 8.01106
44 2 1.008 7.34051 5.21224 7.9163
45 2 1.008 6.61628 6.64511 7.96558
46 1 15.9994 1.40146 1.59548 7.98443
47 2 1.008 1.91193 1.19804 7.24566
48 2 1.008 0.491062 1.67788 7.68617
49 1 15.9994 9.14002 1.97501 3.30902
50 2 1.008 9.14565 2.96154 3.48227
51 2 1.008 9.73833 1.86834 2.5986
52 1 15.9994 13.0148 4.82612 1.27276
53 2 1.008 13.2133 2.85337 1.48372
54 2 1.008 13.7339 4.67599 0.644858
55 1 15.9994 14.6866 5.68498 3.2503
56 2 1.008 15.4942 5.16672 3.15144
57 2 1.008 13.3875 5.09259 2.13111
58 1 15.9994 12.9553 4.84695 5.51041
59 2 1.008 13.5364 5.249 4.85879
60 2 1.008 12.0455 5.21171 5.53531
61 1 15.9994 10.3673 1.21096 5.4248
62 2 1.008 9.83132 1.47404 4.65886
63 2 1.008 11.2759 1.46439 5.14535
64 1 15.9994 10.2295 5.63178 5.63504
65 2 1.008 9.79949 5.22675 4.79022
66 2 1.008 10.1916 6.56723 5.50332
67 1 15.9994 13.2476 1.88578 1.60687
68 2 1.008 11.3691 1.94807 0.803274
69 2 1.008 13.4601 1.78662 2.56593
70 1 15.9994 12.9578 2.21693 5.27705
71 2 1.008 13.5279 1.80037 7.09781
72 2 1.008 12.9487 3.22721 5.38875
73 1 15.9994 8.94002 4.44425 7.92477
74 2 1.008 9.08521 2.39649 7.98137
75 2 1.008 9.46334 4.71664 7.17315
76 1 15.9994 9.06768 4.72316 3.35219
77 2 1.008 8.23314 5.23223 3.36056
78 2 1.008 9.68119 5.03659 2.64641
79 1 15.9994 10.3682 5.4247 1.24367
80 2 1.008 9.75484 5.20119 0.467802
81 2 1.008 11.2836 5.0725 1.06478
82 1 15.9994 10.4922 2.03229 1.14891
83 2 1.008 9.92984 1.9864 0.372394
84 2 1.008 14.8321 1.97707 5.43891
85 1 15.9994 14.2276 1.93019 4.68001
86 2 1.008 14.2048 2.09763 8.41437
87 2 1.008 13.8165 4.97215 7.17705
88 1 15.9994 14.2949 2.25378 7.45455
89 2 1.008 12.9847 3.18608 10.0063
90 2 1.008 12.3949 1.69893 9.98051
91 1 15.9994 14.3019 5.55313 7.79142
92 2 1.008 15.1926 5.17154 7.782
93 2 1.008 13.9293 7.22645 7.81567
94 1 15.9994 9.35931 1.45447 7.93653
95 2 1.008 9.71847 1.34052 7.02081
96 2 1.008 10.2606 1.01969 9.28597
97 1 15.9994 1.62368 9.46045 3.5621
98 2 1.008 2.07582 9.01495 4.3448
99 2 1.008 1.58892 10.4328 3.72608
100 1 15.9994 5.07333 11.4531 1.5541
101 2 1.008 5.09041 10.5945 1.96369
102 2 1.008 3.59477 12.3224 0.853988
103 1 15.9994 6.48185 12.7173 3.31722
104 2 1.008 7.45847 12.6471 3.26977
105 2 1.008 5.60621 12.0359 2.09402
106 1 15.9994 5.11832 11.7105 5.64028
107 2 1.008 6.08978 12.3237 7.25458
108 2 1.008 5.59674 11.9749 4.81977
109 1 15.9994 2.58419 8.25691 5.66826
110 2 1.008 3.52388 8.55076 5.82814
111 2 1.008 2.08373 8.49825 6.49018
112 1 15.9994 2.55231 12.8387 5.6535
113 2 1.008 2.51767 13.821 5.72737
114 2 1.008 4.26235 12.1831 5.55574
115 1 15.9994 5.23242 8.7957 1.24968
116 2 1.008 4.27067 8.60915 1.19876
117 2 1.008 5.66144 8.7865 0.382629
118 1 15.9994 5.16411 8.9836 5.56052
119 2 1.008 5.7736 8.77837 4.80605
120 2 1.008 5.07483 9.96449 5.48752
121 1 15.9994 1.5884 11.7564 7.96052
122 2 1.008 1.46678 10.0274 7.88133
123 2 1.008 1.92358 12.1842 7.16738
124 1 15.9994 1.50605 12.1952 3.1648
125 2 1.008 0.653243 12.6776 3.15648
126 2 1.008 2.10591 12.63 4.86581
127 1 15.9994 2.80918 12.941 0.883672
128 2 1.008 2.46146 12.8713 -0.0111708
129 2 1.008 1.96925 12.3957 2.31598
130 1 15.9994 2.55646 8.49058 1.30729
131 2 1.008 2.22737 7.58867 1.37085
132 2 1.008 2.23747 8.87389 2.19762
133 1 15.9994 6.67088 8.48223 3.47248
134 2 1.008 7.55212 8.83268 3.27274
135 2 1.008 6.1767 8.40403 2.61024
136 1 15.9994 6.29943 8.53446 7.95913
137 2 1.008 5.9756 8.69093 7.0298
138 2 1.008 7.28658 8.68965 7.94718
139 1 15.9994 6.63046 12.5223 8.05253
140 2 1.008 4.40149 -0.462088 10.8893
141 2 1.008 7.51467 12.0941 7.91854
142 1 15.9994 1.3197 9.04237 7.8708
143 2 1.008 0.389418 8.9027 7.91534
144 2 1.008 2.2561 8.46258 9.1562
145 1 15.9994 9.18588 9.26677 3.37385
146 2 1.008 9.73606 8.72396 2.673
147 2 1.008 9.50472 9.00119 4.27607
148 1 15.9994 13.1107 11.5532 1.02908
149 2 1.008 13.0972 10.5382 1.10509
150 2 1.008 12.1499 11.8184 0.96772
151 1 15.9994 14.4759 12.9727 3.11007
152 2 1.008 13.6097 12.1124 4.62997
153 2 1.008 14.1206 12.4086 2.40165
154 1 15.9994 13.0145 11.781 5.28009
155 2 1.008 12.1307 12.2891 5.25132
156 2 1.008 13.5838 11.4408 7.18052
157 1 15.9994 10.2247 8.48761 5.62206
158 2 1.008 11.181 8.67898 5.79444
159 2 1.008 9.7749 8.54173 6.46717
160 1 15.9994 10.5392 12.8071 5.48299
161 2 1.008 9.95898 12.473 4.739
162 2 1.008 10.6182 13.7712 5.30274
163 1 15.9994 13.1489 8.96279 1.23094
164 2 1.008 13.7224 8.57313 0.576652
165 2 1.008 13.497 8.75339 2.11563
166 1 15.9994 13.0666 9.123 5.77999
167 2 1.008 13.9013 8.62929 4.42583
168 2 1.008 13.1083 10.0796 5.51824
169 1 15.9994 9.17874 11.6469 7.8123
170 2 1.008 9.76633 12.1001 7.19354
171 2 1.008 9.4731 11.7913 8.72672
172 1 15.9994 9.02486 11.9493 3.33451
173 2 1.008 8.90484 10.9555 3.394
174 2 1.008 9.71828 12.0832 2.67644
175 1 15.9994 10.6071 12.5176 1.27117
176 2 1.008 10.1005 12.3685 0.418524
177 2 1.008 10.6341 13.4783 1.29707
178 1 15.9994 10.5 7.97969 1.29893
179 2 1.008 10.4345 7.00453 1.27248
180 2 1.008 11.4482 8.18985 1.24542
181 1 15.9994 14.4154 8.369 3.59367
182 2 1.008 14.8072 6.59429 3.39773
183 2 1.008 15.2714 8.82778 3.73681
184 1 15.9994 14.1839 8.1597 7.9558
185 2 1.008 13.6363 9.03006 6.59691
186 2 1.008 13.7991 8.47716 8.79312
187 1 15.9994 14.1319 11.5675 7.94706
188 2 1.008 13.5473 11.5383 8.70633
189 2 1.008 14.1141 13.8589 7.28109
190 1 15.9994 8.90929 8.9236 7.96118
191 2 1.008 9.1063 9.8896 8.1062
192 2 1.008 9.48627 8.48211 8.64791
193 1 15.9994 1.33324 1.85018 12.4815
194 2 1.008 1.98483 1.2048 11.012
195 2 1.008 0.36685 1.7886 12.7231
196 1 15.9994 5.09743 4.6746 10.2726
197 2 1.008 5.74252 5.02182 10.9511
198 2 1.008 5.44627 5.06044 9.40389
199 1 15.9994 6.64085 5.62761 12.3788
200 2 1.008 6.11105 5.21426 13.0891
201 2 1.008 6.64372 6.63353 12.5562
202 1 15.9994 5.25094 4.57458 14.5712
203 2 1.008 5.43386 2.68189 14.8771
204 2 1.008 4.37938 4.99629 14.6048
205 1 15.9994 2.52736 1.4118 14.7624
206 2 1.008 2.57099 2.34295 15.0291
207 2 1.008 2.10475 1.51871 13.8549
208 1 15.9994 2.57689 5.53095 14.7808
209 2 1.008 2.64923 6.5069 14.8635
210 2 1.008 2.21496 5.2245 15.6398
211 1 15.9994 5.38002 2.1016 10.5877
212 2 1.008 4.4083 1.95942 10.6478
213 2 1.008 5.58561 3.00712 10.3222
214 1 15.9994 5.39947 1.71869 14.7694
215 2 1.008 6.24496 1.07283 16.2412
216 2 1.008 4.45548 1.53719 14.5538
217 1 15.9994 1.75064 4.39833 17.0483
218 2 1.008 1.14606 3.605 17.1419
219 2 1.008 1.67509 4.93889 17.8235
220 1 15.9994 1.28467 4.7511 12.3668
221 2 1.008 1.51418 2.7372 12.1216
222 2 1.008 1.83157 4.93594 13.1938
223 1 15.9994 2.61506 5.57816 10.1295
224 2 1.008 1.79163 5.26087 11.6595
225 2 1.008 3.52588 5.23685 10.1687
226 1 15.9994 2.50584 1.32822 10.1827
227 2 1.008 1.91004 1.53326 9.42999
228 2 1.008 6.69737 1.46701 11.7354
229 1 15.9994 7.17627 1.20648 12.5343
230 2 1.008 6.55629 1.45562 13.2758
231 2 1.008 8.63201 1.49479 12.7082
232 1 15.9994 6.86468 0.714856 16.9139
233 2 1.008 6.44112 1.12125 17.7117
234 2 1.008 8.13796 1.73183 16.5329
235 1 15.9994 6.28056 6.09859 16.5234
236 2 1.008 5.704 5.08578 15.26
237 2 1.008 6.84521 5.43389 16.9579
238 1 15.9994 1.01854 1.90474 17.2007
239 2 1.008 0.849989 1.1058 16.7492
240 2 1.008 1.55276 1.6925 18.031
241 1 15.9994 9.58776 1.83894 12.6213
242 2 1.008 9.43354 2.81187 12.508
243 2 1.008 10.3694 1.00656 10.9232
244 1 15.9994 12.9377 4.84237 9.95698
245 2 1.008 13.4488 5.11314 10.7701
246 2 1.008 13.5684 5.10639 9.25207
247 1 15.9994 14.2281 5.34429 12.4185
248 2 1.008 15.0253 4.78606 12.2343
249 2 1.008 13.5987 4.95274 13.0596
250 1 15.9994 12.542 4.67741 14.6887
251 2 1.008 13.0308 4.69562 15.5121
252 2 1.008 12.3184 3.73358 14.4791
253 1 15.9994 10.902 1.28649 14.6676
254 2 1.008 10.3376 1.61605 13.8556
255 2 1.008 9.59138 1.79507 15.9512
256 1 15.9994 9.91526 5.76104 14.717
257 2 1.008 9.33858 4.91875 13.2846
258 2 1.008 10.8013 5.40646 14.8246
259 1 15.9994 13.2541 2.2261 9.98356
260 2 1.008 13.7916 2.22026 11.4657
261 2 1.008 13.4032 1.73162 12.885
262 1 15.9994 12.1362 1.96361 14.5172
263 2 1.008 13.3503 0.471642 17.0493
264 2 1.008 12.6693 1.73629 15.3225
265 1 15.9994 8.80436 4.9887 16.9983
266 2 1.008 8.63946 4.04632 16.8701
267 2 1.008 9.17652 5.23681 16.0761
268 1 15.9994 9.10526 4.54232 12.4027
269 2 1.008 8.1995 4.89549 12.2544
270 2 1.008 9.96377 5.01661 11.0085
271 1 15.9994 10.3015 5.40746 10.1456
272 2 1.008 9.44402 4.87607 8.67836
273 2 1.008 11.241 5.19077 10.0935
274 1 15.9994 10.8661 0.949807 10.0635
275 2 1.008 10.3439 7.13042 10.1974
276 2 1.008 11.4225 8.26196 10.3433
277 1 15.9994 14.0843 2.23371 12.4372
278 2 1.008 14.2806 1.63884 17.1066
279 2 1.008 15.374 4.92001 15.7941
280 1 15.9994 13.7648 1.12391 16.4773
281 2 1.008 14.6773 6.12038 16.3755
282 2 1.008 13.8814 8.56339 16.1302
283 1 15.9994 14.7336 5.16693 16.4581
284 2 1.008 15.136 8.32338 16.8453
285 2 1.008 13.8879 8.8218 13.8098
286 1 15.9994 8.9138 2.37875 16.3756
287 2 1.008 6.83083 6.89995 16.4959
288 2 1.008 10.0448 6.70081 14.5412
289 1 15.9994 1.64555 9.17712 12.3502
290 2 1.008 1.97158 8.83956 11.4971
291 2 1.008 1.6558 10.1385 12.2841
292 1 15.9994 5.25106 11.3077 10.0617
293 2 1.008 5.83266 11.7413 9.40266
294 2 1.008 4.45435 11.8712 9.96515
295 1 15.9994 6.73865 12.6529 12.2187
296 2 1.008 6.32812 12.2568 13.0132
297 2 1.008 6.28154 12.1642 11.4688
298 1 15.9994 5.18213 11.9732 14.5252
299 2 1.008 5.17774 10.2006 14.4927
300 2 1.008 4.2828 12.3246 14.6041
301 1 15.9994 2.60883 8.21988 14.6708
302 2 1.008 2.23204 8.43906 13.7976
303 2 1.008 3.53308 8.55616 14.6531
304 1 15.9994 2.80324 13.291 14.7196
305 2 1.008 2.74922 14.2554 14.6495
306 2 1.008 2.19311 13.0001 15.4519
307 1 15.9994 5.27862 8.84281 10.3819
308 2 1.008 5.42463 9.79192 10.304
309 2 1.008 5.484 8.54567 9.48945
310 1 15.9994 5.20236 9.21732 14.4122
311 2 1.008 6.20004 8.90394 15.7801
312 2 1.008 5.669 9.00942 13.5519
313 1 15.9994 1.30987 12.0945 16.8602
314 2 1.008 1.24938 11.1089 16.9683
315 2 1.008 0.370447 12.3557 16.7083
316 1 15.9994 1.61567 12.1599 12.4244
317 2 1.008 0.801129 12.6735 12.2454
318 2 1.008 1.91067 12.4461 13.3045
319 1 15.9994 2.71215 12.9617 10.0407
320 2 1.008 2.38922 12.781 10.9168
321 2 1.008 1.9672 12.2209 8.72009
322 1 15.9994 2.56577 8.25892 10.0191
323 2 1.008 2.6365 6.56557 10.0696
324 2 1.008 3.51316 8.42792 10.1536
325 1 15.9994 6.61233 8.4117 12.4565
326 2 1.008 7.53167 8.70034 12.3833
327 2 1.008 6.17395 8.5171 11.509
328 1 15.9994 6.71084 9.16742 16.5826
329 2 1.008 7.6197 8.84438 16.533
330 2 1.008 9.7047 8.74455 17.669
331 1 15.9994 6.65986 12.1705 16.7213
332 2 1.008 5.6715 12.3617 15.2767
333 2 1.008 6.83725 11.2036 16.5237
334 1 15.9994 1.34862 9.51363 16.633
335 2 1.008 1.54305 9.00118 17.4243
336 2 1.008 1.78897 9.02457 15.8649
337 1 15.9994 9.32841 9.36909 12.213
338 2 1.008 9.70855 8.91131 11.3707
339 2 1.008 9.78432 8.92159 12.9654
340 1 15.9994 12.7942 11.6124 10.2448
341 2 1.008 13.0202 9.87512 10.2295
342 2 1.008 11.8968 11.9834 10.3369
343 1 15.9994 14.2713 13.0339 12.4738
344 2 1.008 13.2851 11.8253 11.0321
345 2 1.008 13.5432 13.6169 12.1783
346 1 15.9994 13.0357 12.0949 14.6413
347 2 1.008 13.8707 12.5742 13.2306
348 2 1.008 12.0813 12.3491 14.7923
349 1 15.9994 10.5361 8.415 14.5482
350 2 1.008 11.4692 8.51093 14.84
351 2 1.008 9.96822 8.57107 15.3318
352 1 15.9994 10.3874 13.112 14.5575
353 2 1.008 10.0213 12.6167 13.7571
354 2 1.008 9.65048 12.2926 15.7358
355 1 15.9994 13.0433 8.88479 10.3007
356 2 1.008 13.5787 8.59582 11.0693
357 2 1.008 15.5632 8.21533 12.7063
358 1 15.9994 13.2374 9.03628 14.4629
359 2 1.008 13.1502 9.98492 14.3355
360 2 1.008 14.553 6.96965 12.5256
361 1 15.9994 9.19203 11.8099 16.4589
362 2 1.008 8.32186 12.2361 16.616
363 2 1.008 9.44241 10.1494 16.8895
364 1 15.9994 9.33426 11.9689 12.4041
365 2 1.008 8.38292 12.3011 12.3428
366 2 1.008 9.30807 10.9352 12.3495
367 1 15.9994 10.47 12.5947 10.1885
368 2 1.008 10.4108 13.5789 10.0866
369 2 1.008 9.93041 12.3209 11.0456
370 1 15.9994 10.5016 8.1025 10.1535
371 2 1.008 4.83039 14.7373 11.3458
372 2 1.008 10.4414 14.0786 14.3684
373 1 15.9994 14.6508 7.96526 12.499
374 2 1.008 13.5638 12.4055 15.3771
375 2 1.008 13.8926 12.3017 17.7991
376 1 15.9994 14.2288 8.06179 16.8749
377 2 1.008 15.0224 13.4193 17.8043
378 2 1.008 6.03946 12.0766 17.4396
379 1 15.9994 14.4662 12.9284 17.1688
380 2 1.008 13.6202 14.341 7.00233
381 2 1.008 13.8727 13.6729 3.40348
382 1 15.9994 9.4069 9.166 16.797
383 2 1.008 2.7076 13.9127 10.0257
384 2 1.008 6.28259 13.6608 3.41721
ITEM: TIMESTEP
1000
ITEM: NUMBER OF ATOMS
384
ITEM: BOX BOUNDS xy xz yz pp pp pp
0.0000000000000000e+00 1.5645677531129000e+01 0.0000000000000000e+00
0.0000000000000000e+00 1.4707145294364000e+01 0.0000000000000000e+00
0.0000000000000000e+00 1.8073037030847999e+01 0.0000000000000000e+00
ITEM: ATOMS id type mass x y z
1 1 15.9994 1.14091 1.41378 3.15805
2 2 1.008 1.09015 2.39644 3.30948
3 2 1.008 0.265116 1.14601 3.41788
4 1 15.9994 5.78821 4.61048 1.59683
5 2 1.008 6.05516 4.76632 2.51321
6 2 1.008 5.60944 3.61506 1.61153
7 1 15.9994 6.94434 5.94699 4.20282
8 2 1.008 6.2104 5.61269 4.8434
9 2 1.008 6.74943 6.87704 3.93582
10 1 15.9994 5.16749 4.69437 5.69048
11 2 1.008 4.1827 4.92456 5.81566
12 2 1.008 5.58066 4.91801 6.53796
13 1 15.9994 2.56922 0.988057 5.60765
14 2 1.008 2.20814 0.932879 4.74898
15 2 1.008 3.44195 1.39033 5.59503
16 1 15.9994 2.5716 5.50389 5.66866
17 2 1.008 2.6082 6.4813 5.88654
18 2 1.008 2.39819 5.05811 6.53219
19 1 15.9994 5.67825 1.83611 1.23871
20 2 1.008 4.82155 1.32054 1.13605
21 2 1.008 6.0912 1.43227 2.05779
22 1 15.9994 5.29809 2.006 5.36509
23 2 1.008 5.71579 1.92917 6.27017
24 2 1.008 5.24307 3.01896 5.32969
25 1 15.9994 1.6691 4.37451 7.92059
26 2 1.008 1.70345 3.40038 7.95616
27 2 1.008 1.98667 4.72988 8.7925
28 1 15.9994 1.33687 4.35082 3.50166
29 2 1.008 2.02125 4.60125 2.88556
30 2 1.008 1.6441 4.70559 4.36199
31 1 15.9994 3.18148 5.85082 1.55613
32 2 1.008 4.01138 5.41994 1.80434
33 2 1.008 2.99298 5.82692 0.624534
34 1 15.9994 2.94944 0.800687 1.17929
35 2 1.008 2.69195 0.998432 2.08903
36 2 1.008 2.99181 14.5265 1.05144