24
 Atoms. Timestep: 600
O -0.409723 0.901107 -0.486863
H 0.120284 1.72716 6.76932
H 4.9599 1.07896 0.00226973
O 2.06557 2.6588 6.56142
H 2.65571 2.36481 7.28807
H 2.51175 2.55957 5.72112
O 3.83983 2.08812 1.37019
H 3.36998 2.26803 2.25956
H 4.5691 2.72669 1.36024
O 2.73819 2.81245 3.60716
H 1.80621 2.65737 3.49251
H 2.78255 3.79921 3.45821
O 0.108178 0.341831 2.73223
H 0.159891 -0.10642 1.86537
H 0.960745 5.98951 3.14718
O 6.30747 2.92993 3.28089
H 5.85694 3.07952 4.10678
H 6.12221 1.97706 3.04901
O 1.99929 5.3036 7.44061
H 1.53312 0.119607 6.87122
H 1.93011 4.45653 7.01256
O 2.96234 5.53495 2.87183
H 3.84235 5.97255 3.01068
H 2.78555 5.52355 1.91443
24
 Atoms. Timestep: 800
O 6.1573 1.41669 6.09255
H 0.793987 1.84325 6.2625
H 5.55774 1.99899 6.63065
O 2.21666 2.75867 6.37596
H 2.91846 2.53856 6.99276
H 2.54228 2.88924 5.47093
O 4.10353 2.50192 1.22538
H 3.7205 2.12674 2.03157
H 4.08889 3.44443 1.46514
O 2.73002 3.00433 3.71855
H 1.76036 2.79027 3.51197
H 2.84729 3.90853 3.41579
O 6.03441 -0.0808125 2.9759
H 0.478708 5.48937 2.28498
H 0.040991 5.16987 3.72169
O 6.22937 2.61119 3.69512
H 5.96454 2.30307 4.57439
H 6.09679 1.77238 3.1687
O 1.21628 5.06197 0.767365
H 0.875923 5.66213 7.28184
H 1.50637 4.30408 7.38919
O 3.32057 5.32968 2.53176
H 4.27951 5.53791 2.4979
H 2.82722 5.56651 1.71958
24
 Atoms. Timestep: 1000
O 6.52484 1.59453 6.96779
H 0.962592 2.30628 6.76759
H 5.83924 2.00609 0.354131
O 2.6543 3.45795 6.43485
H 3.31119 3.03134 7.00629
H 2.9149 3.31912 5.46699
O 4.4459 2.67585 1.31398
H 3.83941 2.63112 2.07389
H 4.5992 3.60811 1.19607
O 2.61553 2.98089 3.54076
H 1.67094 2.61386 3.5919
H 2.511 3.77187 2.98783
O 5.99513 5.35849 2.93435
H 0.0322498 5.24709 1.931
H 6.12113 4.48487 3.33786
O 6.26505 2.22025 4.06798
H 6.19448 1.8861 4.98852
H 5.96284 1.56817 3.45626
O 0.174693 4.80692 0.0309946
H 0.254258 5.77464 -0.141908
H 1.02332 4.41687 6.9416
O 3.35295 5.28333 2.06242
H 4.08106 -0.303477 2.67355
H 2.86931 6.13027 1.91104
384
 Atoms. Timestep: 81
O 1.31659 1.79241 3.3229
H 1.2831 2.77511 3.33744
H 0.386645 1.47384 3.33753
O 5.27908 4.57809 1.10401
H 5.73918 4.93153 1.89825
H 5.77534 4.89789 0.318034
O 6.51816 5.5126 3.38299
H 6.05673 5.19667 4.19103
H 6.50144 6.4957 3.41244
O 5.22969 4.55299 5.64228
H 4.30432 4.88344 5.67064
H 5.67622 4.89845 6.44736
O 2.62991 0.867865 5.57898
H 2.19417 1.20896 4.76685
H 3.54896 1.21615 5.57599
O 2.61381 5.4668 5.62851
H 2.60822 6.44968 5.65763
H 2.15715 5.15796 6.44233
O 5.26619 1.80665 1.1095
H 5.29392 2.78912 1.1287
H 5.72579 1.49656 1.92133
O 5.2449 1.78338 5.62496
H 5.69163 1.46612 6.44124
H 5.2604 2.76587 5.65931
O 1.33761 4.52174 7.89514
H 1.34639 3.53899 7.90189
H 1.80439 4.81174 8.71106
O 1.33031 4.5504 3.35698
H 1.83267 4.88327 2.57963
H 1.79405 4.88773 4.15605
O 2.66264 5.44515 1.11357
H 2.65815 6.42849 1.09674
H 3.60641 5.16764 1.1023
O 2.65702 0.878215 1.0979
H 2.19875 1.22672 1.89595
H 3.57592 1.22559 1.12741
O 6.5471 0.864799 3.3732
H 6.08223 1.15837 4.18889
H 8.20983 1.49476 3.352
O 6.52411 0.835013 7.88676
H 6.06614 1.14715 8.69935
H 8.21587 1.39926 7.8371
O 6.56113 5.4775 7.8904
H 7.49084 5.15896 7.86331
H 6.59826 6.4602 7.87597
O 1.31884 1.75426 7.85684
H 1.74998 1.4316 7.03524
H 0.394519 1.41877 7.84867
O 9.13884 1.8174 3.33112
H 9.09536 2.79954 3.331
H 9.96262 1.23282 1.86282
O 13.0622 4.51432 1.07362
H 13.0865 3.53152 1.05557
H 13.5339 4.82782 0.269647
O 14.3589 5.43517 3.33434
H 15.2862 5.10795 3.31609
H 13.9254 5.0954 2.51989
O 13.062 4.53797 5.60112
H 13.5001 4.86699 4.78422
H 12.1384 4.8736 5.57815
O 10.4514 0.880279 5.56933
H 10.0152 1.24157 4.76498
H 11.3758 1.2128 5.56663
O 10.4487 5.44989 5.59112
H 9.97623 5.17402 4.77388
H 10.439 6.43299 5.60138
O 13.075 1.74916 1.10093
H 12.1436 1.43247 1.12103
H 13.5049 1.41348 1.91915
O 13.0783 1.7746 5.62413
H 13.5264 1.47105 6.4444
H 13.0904 2.75751 5.64123
O 9.1596 4.51243 7.84329
H 9.15618 3.53005 7.81778
H 9.6181 4.81458 7.0269
O 9.12573 4.58303 3.33207
H 8.20949 4.93737 3.32272
H 9.56574 4.89406 2.50913
O 10.4537 5.42 1.06276
H 10.0271 5.08186 0.24321
H 11.3761 5.07777 1.05452
O 10.4571 0.883487 1.08828
H 9.9885 1.20936 0.287637
H 13.9087 1.14588 4.18265
O 14.3649 0.837986 3.3675
H 13.8876 1.17616 8.70876
H 13.9376 5.10767 7.04562
O 14.3523 0.853875 7.90414
H 13.0313 2.80238 10.1278
H 12.1012 1.52824 10.1395
O 14.3815 5.44515 7.85502
H 15.3033 5.1024 7.8415
H 14.3388 7.22221 7.83899
O 9.13785 1.74004 7.85344
H 9.57814 1.4126 7.03826
H 9.96014 1.20514 9.34342
O 1.33738 9.12749 3.36213
H 1.8042 8.8282 4.17462
H 1.34506 10.1102 3.38822
O 5.2207 11.8721 1.107
H 5.18564 10.8898 1.09285
H 4.28868 12.186 1.11938
O 6.56902 12.8024 3.34755
H 7.48814 12.4545 3.31395
H 6.10796 12.4549 2.55226
O 5.25771 11.9315 5.6228
H 5.74923 12.2435 6.41524
H 5.74796 12.2558 4.83491
O 2.63383 8.23422 5.63065
H 3.55526 8.57882 5.65384
H 2.18722 8.56057 6.44297
O 2.63971 12.813 5.62923
H 2.65807 13.7962 5.6128
H 3.57911 12.5225 5.62301
O 5.22126 9.10772 1.07533
H 4.29936 8.76929 1.05282
H 5.67049 8.76673 0.269484
O 5.23225 9.16884 5.62134
H 5.69421 8.87366 4.80439
H 5.24963 10.1521 5.60396
O 1.3225 11.8714 7.87749
H 1.33273 10.8887 7.85194
H 1.79646 12.183 7.07502
O 1.32968 11.899 3.3748
H 0.399881 12.2175 3.40566
H 1.77468 12.2383 4.18362
O 2.62153 12.818 1.11951
H 2.63328 13.8007 1.14324
H 2.15562 12.5228 1.93433
O 2.60064 8.20151 1.08156
H 2.12161 8.5517 0.298083
H 2.13784 8.54674 1.87719
O 6.52816 8.26871 3.36487
H 7.46054 8.58138 3.33473
H 6.09135 8.58182 2.54202
O 6.56639 8.24243 7.86138
H 6.12778 8.582 7.04975
H 7.48639 8.59194 7.85513
O 6.56941 12.7728 7.90043
H 6.12052 12.4382 8.70841
H 7.49807 12.4534 7.9369
O 1.31368 9.11414 7.89734
H 0.390892 8.77729 7.91483
H 1.76191 8.76627 8.70053
O 9.15782 9.10318 3.35893
H 9.64378 8.74211 2.58241
H 9.62733 8.77974 4.1592
O 13.0387 11.8498 1.1229
H 13.0067 10.8671 1.12169
H 12.1084 12.1674 1.10041
O 14.3532 12.7755 3.37604
H 13.8691 12.4537 4.16917
H 13.8681 12.4316 2.59296
O 13.0454 11.9037 5.6472
H 12.1256 12.2504 5.66169
H 13.4869 12.2292 6.46274
O 10.4577 8.21364 5.64481
H 11.3803 8.55499 5.65052
H 10.0265 8.55835 6.4572
O 10.4385 12.8293 5.61464
H 9.99109 12.4996 4.80395
H 10.4251 13.8112 5.56064
O 13.0485 9.08477 1.10355
H 13.5347 8.77416 0.306269
H 13.5471 8.75552 1.88475
O 13.0608 9.135 5.60578
H 13.5345 8.83193 4.79927
H 13.0712 10.1174 5.59097
O 9.2008 11.9124 7.91063
H 9.65577 12.2571 7.11016
H 9.67742 12.273 8.69059
O 9.17175 11.8718 3.34013
H 9.19391 10.889 3.32213
H 9.63415 12.18 2.52915
O 10.451 12.8124 1.07036
H 9.96877 12.5193 0.264241
H 10.4397 13.7947 1.06228
O 10.4511 8.17733 1.11635
H 10.4723 7.1941 1.08817
H 11.3898 8.47305 1.1115
O 14.3773 8.20333 3.35582
H 14.399 7.22055 3.35028
H 15.3132 8.50608 3.36264
O 14.3384 8.20446 7.88448
H 13.889 8.52146 7.06986
H 13.5177 8.76779 9.35703
O 14.3543 12.7933 7.92166
H 13.9187 12.4384 8.72874
H 15.277 12.4557 7.92629
O 9.16498 9.15471 7.91248
H 9.20143 10.1373 7.93792
H 9.62446 8.83613 8.72104
O 1.33935 1.74723 12.3837
H 1.77441 1.41071 11.5697
H 0.406576 1.43469 12.3549
O 5.26767 4.53941 10.1435
H 5.73541 4.88179 10.9379
H 5.74933 4.89009 9.36122
O 6.53814 5.47148 12.4156
H 6.06664 5.15381 13.2176
H 6.51218 6.45396 12.4411
O 5.23624 4.5234 14.6657
H 5.21053 3.54051 14.669
H 4.30226 4.82833 14.6873
O 2.63761 0.875035 14.6626
H 2.14398 1.20861 15.4464
H 2.15681 1.1915 13.866
O 2.62193 5.44236 14.6952
H 2.60114 6.4247 14.6975
H 2.15976 5.14539 15.5106
O 5.23287 1.77441 10.1436
H 4.29553 1.4766 10.1255
H 5.22091 2.7574 10.1365
O 5.2437 1.75615 14.6653
H 5.68358 1.41746 15.4768
H 4.31704 1.42514 14.6886
O 1.32921 4.521 16.9562
H 1.32879 3.53803 16.9677
H 1.80914 4.81296 17.7638
O 1.36706 4.50445 12.4196
H 1.37732 3.52115 12.4312
H 1.81464 4.80648 13.2415
O 2.64797 5.41739 10.1524
H 2.2223 5.08339 10.9737
H 3.57697 5.09516 10.1679
O 2.63515 0.848168 10.1072
H 2.16365 1.14178 9.29573
H 6.05475 1.21094 11.6152
O 6.5482 0.882692 12.4
H 6.06543 1.20925 13.193
H 8.20438 1.49649 12.3993
O 6.5527 0.845933 16.9252
H 6.10086 1.16974 17.7363
H 8.24079 1.40999 16.8681
O 6.59225 5.44533 16.8994
H 6.12562 5.10253 16.1051
H 7.51176 5.09789 16.8557
O 1.32251 1.75085 16.9142
H 0.405189 1.39638 16.9523
H 1.78451 1.42065 17.7174
O 9.14202 1.79742 12.3981
H 9.11794 2.7801 12.4022
H 9.95378 1.24867 10.9223
O 13.0676 4.58652 10.1261
H 13.5606 4.90474 10.9146
H 13.5541 4.90968 9.33519
O 14.4098 5.43175 12.398
H 15.3291 5.08269 12.4202
H 13.9649 5.08236 13.202
O 13.097 4.50247 14.649
H 13.5566 4.82364 15.4564
H 13.1009 3.51997 14.6949
O 10.4739 0.831449 14.6242
H 10.0019 1.15566 13.8249
H 9.60165 1.39926 16.0688
O 10.5001 5.4481 14.6293
H 10.0528 5.13231 13.8123
H 11.4174 5.094 14.6096
O 13.0414 1.81951 10.1409
H 13.8689 1.25368 11.6056
H 13.8945 1.20839 13.1829
O 13.0788 1.74148 14.6766
H 13.5158 1.38999 15.484
H 12.1566 1.39869 14.6832
O 9.18597 4.51408 16.8644
H 9.18872 3.53075 16.8365
H 9.65783 4.81967 16.0568
O 9.15443 4.56657 12.3862
H 8.23464 4.91297 12.3849
H 9.57865 4.88307 11.5574
O 10.4395 5.43462 10.1051
H 10.0171 5.08661 9.28812
H 11.3719 5.12256 10.0958
O 10.4472 0.90512 10.1432
H 10.461 7.21499 10.1387
H 11.3897 8.48666 10.1682
O 14.3652 0.898461 12.3769
H 13.9063 1.12254 17.7445
H 15.3169 5.15659 16.9294
O 14.3784 0.814753 16.9376
H 14.4007 6.44017 16.9006
H 13.9222 8.57209 16.0935
O 14.3808 5.45787 16.909
H 15.2845 8.58317 16.8781
H 13.5487 8.83133 13.8272
O 9.16308 1.75219 16.8749
H 6.59601 7.22185 16.8976
H 10.5097 7.22978 14.6673
O 1.34896 9.13823 12.3713
H 1.82337 8.83638 11.5647
H 1.34928 10.1212 12.3548
O 5.24189 11.8851 10.1558
H 5.66956 12.2334 10.9698
H 4.31542 12.2153 10.1633
O 6.52179 12.8176 12.419
H 6.04618 12.5183 13.2266
H 6.52056 13.8004 12.4366
O 5.20709 11.8935 14.6634
H 5.18986 10.9108 14.6589
H 4.26988 12.194 14.6676
O 2.6165 8.21672 14.6506
H 2.19006 8.55398 13.8317
H 3.54596 8.53734 14.6336
O 2.61415 12.8164 14.6689
H 2.61284 13.7995 14.6845
H 2.14634 12.5262 15.4849
O 5.25296 9.12366 10.1194
H 5.25396 10.1072 10.1143
H 5.72449 8.83878 9.30425
O 5.22651 9.12443 14.6621
H 5.71642 8.78451 15.4439
H 5.70852 8.80233 13.8677
O 1.32932 11.9197 16.9276
H 1.76377 12.2555 17.7436
H 0.395335 12.2271 16.957
O 1.326 11.9039 12.4014
H 0.406065 12.2518 12.4172
H 1.76386 12.2386 13.2157
O 2.63222 12.7881 10.1345
H 2.14567 12.471 10.9282
H 2.15324 12.4399 9.34983
O 2.65332 8.18992 10.128
H 2.67961 7.20765 10.1477
H 3.58797 8.49688 10.1165
O 6.53095 8.231 12.401
H 7.46065 8.55114 12.3816
H 6.10132 8.5617 11.5807
O 6.55527 8.2047 16.9051
H 7.4877 8.518 16.9151
H 9.63353 8.78454 17.7182
O 6.51492 12.7891 16.925
H 6.02824 12.4609 16.1356
H 6.03189 12.4468 17.711
O 1.31752 9.15671 16.8954
H 1.78753 8.85441 16.0861
H 1.3436 10.1397 16.8859
O 9.14645 9.11381 12.415
H 9.63452 8.76573 11.6342
H 9.62318 8.78426 13.2086
O 13.0521 11.8632 10.1715
H 13.0182 10.8807 10.1724
H 12.1224 12.1838 10.1808
O 14.3767 12.8395 12.39
H 13.9015 12.5094 11.5948
H 14.3538 13.8213 12.3463
O 13.0587 11.9188 14.6448
H 13.5036 12.2758 13.8446
H 12.1288 12.237 14.6143
O 10.4699 8.21244 14.6844
H 11.4005 8.52925 14.6579
H 9.64723 8.78725 16.1435
O 10.431 12.7833 14.632
H 9.94388 12.4365 13.8504
H 9.94842 12.4584 15.4248
O 13.0506 9.09637 10.1579
H 13.5515 8.75807 10.9338
H 15.3292 8.50765 12.3859
O 13.0757 9.14506 14.6305
H 13.0808 10.1272 14.5962
H 14.429 7.21288 12.4128
O 9.12378 11.8943 16.9022
H 8.18293 12.1818 16.9101
H 9.11659 10.911 16.9158
O 9.11445 11.8777 12.3892
H 8.17842 12.18 12.4008
H 9.09869 10.8947 12.3862
O 10.4754 12.8445 10.1823
H 10.4553 13.8272 10.2053
H 9.97781 12.5309 10.9701
O 10.4489 8.19764 10.1728
H 6.52118 14.5602 7.92201
H 10.4414 14.5557 14.5924
O 14.3966 8.19567 12.3931
H 13.8695 12.4466 16.1431
H 13.8612 12.4103 17.722
O 14.3649 8.23441 16.9039
H 14.3529 14.5389 16.9613
H 6.51966 14.5706 16.9572
O 14.3482 12.7607 16.9427
H 14.3375 14.5791 7.94482
H 14.3465 14.5625 3.389
O 9.15902 9.12662 16.9283
H 2.62499 14.5724 10.0926
H 6.54216 14.5891 3.3789
384
 Atoms. Timestep: 82
O 1.31814 1.78756 3.32845
H 1.27638 2.78434 3.31667
H 0.40142 1.46883 3.32808
O 5.28157 4.57773 1.11174
H 5.74576 4.94172 1.90818
H 5.78008 4.89671 0.319672
O 6.51953 5.51513 3.37949
H 6.05237 5.21657 4.20397
H 6.49448 6.50834 3.38667
O 5.2324 4.55374 5.64444
H 4.33058 4.8876 5.67001
H 5.69523 4.89163 6.44844
O 2.62595 0.872182 5.57701
H 2.19711 1.20028 4.74421
H 3.53132 1.21081 5.5744
O 2.61627 5.46921 5.62572
H 2.6002 6.44057 5.65546
H 2.14394 5.15875 6.46349
O 5.26402 1.80348 1.11548
H 5.28427 2.81215 1.13304
H 5.71416 1.49125 1.93731
O 5.24528 1.78396 5.62478
H 5.70232 1.46432 6.45825
H 5.25934 2.76073 5.65477
O 1.34512 4.52633 7.89782
H 1.34948 3.54917 7.89809
H 1.79335 4.82676 8.72557
O 1.33376 4.54294 3.35841
H 1.83886 4.87207 2.57059
H 1.7702 4.88864 4.15556
O 2.6601 5.44094 1.11955
H 2.64791 6.41915 1.0984
H 3.60805 5.19136 1.07331
O 2.65501 0.879601 1.09771
H 2.19475 1.21801 1.88918
H 3.54964 1.23265 1.11761
O 6.54765 0.859029 3.37734
H 6.09367 1.14656 4.20002
H 8.23496 1.51771 3.34897
O 6.51841 0.832798 7.88411
H 6.05601 1.16469 8.68371
H 8.22919 1.387 7.85036
O 6.56052 5.48603 7.89199
H 7.4904 5.16438 7.8606
H 6.5981 6.47587 7.90029
O 1.31563 1.74798 7.8539
H 1.74527 1.43965 7.02897
H 0.385285 1.40694 7.86836
O 9.13981 1.81517 3.32604
H 9.08152 2.79577 3.32067
H 9.96263 1.2091 1.86417
O 13.063 4.51896 1.06849
H 13.0887 3.51615 1.06682
H 13.5176 4.82914 0.267677
O 14.3682 5.43678 3.33477
H 15.2671 5.11224 3.31724
H 13.9184 5.0753 2.51256
O 13.062 4.54558 5.60229
H 13.4795 4.87273 4.77281
H 12.1607 4.86284 5.59561
O 10.4547 0.886343 5.56571
H 9.99875 1.25494 4.75318
H 11.387 1.20809 5.57371
O 10.4421 5.45195 5.59137
H 9.99665 5.19375 4.78882
H 10.4389 6.41951 5.60975
O 13.0777 1.75021 1.10366
H 12.1358 1.40961 1.11799
H 13.4962 1.39912 1.89506
O 13.0768 1.77769 5.6305
H 13.512 1.46581 6.43582
H 13.091 2.76325 5.67343
O 9.15667 4.50996 7.83984
H 9.13618 3.51409 7.80193
H 9.62431 4.78635 7.05466
O 9.12728 4.58181 3.32746
H 8.20932 4.94037 3.30244
H 9.57109 4.87689 2.53129
O 10.4462 5.41785 1.05904
H 10.0259 5.0828 0.227246
H 11.3887 5.07239 1.07263
O 10.45 0.883761 1.08967
H 10.0039 1.20942 0.282433
H 13.9014 1.14157 4.19473
O 14.3632 0.83703 3.37678
H 13.8712 1.1699 8.70842
H 13.9234 5.11742 7.03796
O 14.3552 0.852067 7.90368
H 13.0244 2.82532 10.1217
H 12.0961 1.54846 10.1233
O 14.3862 5.45293 7.85712
H 15.3071 5.10755 7.83543
H 14.3097 7.23001 7.83514
O 9.13813 1.73628 7.85456
H 9.57342 1.41903 7.03126
H 9.94714 1.19359 9.32157
O 1.34064 9.12804 3.37153
H 1.79773 8.79665 4.1715
H 1.34587 10.118 3.3754
O 5.22576 11.8733 1.10894
H 5.16942 10.8983 1.07408
H 4.28838 12.1751 1.13655
O 6.56698 12.8026 3.3466
H 7.49306 12.4554 3.3102
H 6.08361 12.4356 2.54986
O 5.25565 11.9241 5.62492
H 5.73811 12.2194 6.3989
H 5.74087 12.2714 4.84369
O 2.63436 8.2336 5.62617
H 3.57795 8.56994 5.66252
H 2.18615 8.57254 6.45428
O 2.63667 12.8105 5.63011
H 2.65672 13.8028 5.61492
H 3.58937 12.5215 5.65199
O 5.22099 9.10826 1.0801
H 4.30505 8.77272 1.05255
H 5.64929 8.7713 0.275379
O 5.23454 9.16527 5.62117
H 5.68469 8.88352 4.81206
H 5.24063 10.1522 5.62205
O 1.31776 11.8713 7.87877
H 1.33342 10.8926 7.84043
H 1.79279 12.2054 7.06544
O 1.33152 11.9004 3.37199
H 0.420206 12.2294 3.40195
H 1.772 12.2556 4.19467
O 2.62017 12.8158 1.11031
H 2.61294 13.7975 1.15276
H 2.15283 12.5282 1.9168
O 2.60249 8.20347 1.08229
H 2.11606 8.55734 0.291805
H 2.14329 8.52836 1.91096
O 6.53348 8.26729 3.36116
H 7.45321 8.58851 3.32617
H 6.08855 8.59084 2.52934
O 6.55935 8.25106 7.86331
H 6.11688 8.59832 7.05101
H 7.48722 8.55766 7.8362
O 6.57109 12.7756 7.90477
H 6.12216 12.4631 8.71718
H 7.50677 12.4543 7.94629
O 1.31575 9.10981 7.89504
H 0.389972 8.76627 7.90644
H 1.76393 8.753 8.69884
O 9.15574 9.10716 3.35516
H 9.62274 8.7384 2.58585
H 9.62207 8.79012 4.16922
O 13.0408 11.847 1.11537
H 13.0118 10.8871 1.15532
H 12.0949 12.1449 1.08916
O 14.3606 12.7718 3.37468
H 13.8707 12.4502 4.15907
H 13.8818 12.428 2.59477
O 13.0435 11.9002 5.64115
H 12.1233 12.2528 5.67461
H 13.4809 12.2317 6.45901
O 10.4537 8.21906 5.646
H 11.3859 8.53485 5.63052
H 10.0194 8.54105 6.44552
O 10.442 12.8308 5.61406
H 9.99704 12.5117 4.78147
H 10.4318 13.8222 5.5711
O 13.0482 9.0813 1.10067
H 13.5255 8.79257 0.313245
H 13.5334 8.74812 1.87531
O 13.06 9.1372 5.60537
H 13.5314 8.84572 4.79226
H 13.0942 10.1289 5.62039
O 9.19688 11.9099 7.90372
H 9.65025 12.2387 7.11831
H 9.67601 12.2511 8.69183
O 9.16371 11.8688 3.3404
H 9.18533 10.9112 3.32649
H 9.6389 12.1824 2.50857
O 10.4512 12.8082 1.06972
H 9.96757 12.5011 0.267196
H 10.4444 13.7914 1.05102
O 10.4502 8.17605 1.11778
H 10.4787 7.21578 1.11685
H 11.3893 8.47083 1.12915
O 14.3712 8.20303 3.35793
H 14.3922 7.19264 3.35317
H 15.3072 8.52255 3.38579
O 14.3338 8.20735 7.88811
H 13.9177 8.53488 7.0549
H 13.5303 8.78156 9.37227
O 14.3512 12.7971 7.92373
H 13.9368 12.4167 8.71853
H 15.2592 12.4465 7.91987
O 9.15569 9.15087 7.90988
H 9.20238 10.1582 7.97122
H 9.62088 8.82734 8.74263
O 1.33858 1.74626 12.3862
H 1.75139 1.42517 11.5767
H 0.417687 1.44272 12.3464
O 5.26785 4.54107 10.1463
H 5.72685 4.88117 10.9479
H 5.76466 4.89888 9.34983
O 6.541 5.47661 12.4104
H 6.08674 5.17204 13.2066
H 6.52449 6.47368 12.4302
O 5.23454 4.52069 14.6621
H 5.18833 3.53249 14.6604
H 4.30358 4.83425 14.7051
O 2.63916 0.871443 14.6602
H 2.13227 1.20157 15.4711
H 2.14386 1.2167 13.891
O 2.62857 5.43842 14.6997
H 2.59303 6.4214 14.7036
H 2.14888 5.14935 15.5012
O 5.2337 1.77547 10.1473
H 4.29303 1.48697 10.1291
H 5.23732 2.76758 10.1373
O 5.24493 1.75335 14.6698
H 5.71035 1.42683 15.4652
H 4.30697 1.42607 14.67
O 1.33227 4.51986 16.9545
H 1.33136 3.53063 16.976
H 1.82638 4.82953 17.771
O 1.36926 4.50304 12.4191
H 1.3676 3.51262 12.4001
H 1.8485 4.8578 13.2338
O 2.64556 5.42306 10.147
H 2.21675 5.10914 10.9653
H 3.58646 5.13586 10.1627
O 2.63647 0.850931 10.106
H 2.16406 1.14989 9.30403
H 6.06685 1.2272 11.6249
O 6.55141 0.883251 12.3964
H 6.06693 1.21697 13.216
H 8.21009 1.46608 12.3935
O 6.55822 0.842198 16.9238
H 6.14583 1.16917 17.7458
H 8.23458 1.40093 16.8636
O 6.59087 5.44422 16.9011
H 6.10514 5.0783 16.1093
H 7.52418 5.10685 16.8755
O 1.32507 1.75326 16.916
H 0.403698 1.40043 16.9242
H 1.784 1.39121 17.7146
O 9.14018 1.80033 12.4004
H 9.12363 2.79455 12.4076
H 9.92508 1.24381 10.9167
O 13.0644 4.58674 10.12
H 13.5541 4.92151 10.9219
H 13.5606 4.92794 9.31216
O 14.4102 5.43143 12.3981
H 15.3307 5.09336 12.4266
H 13.9397 5.05446 13.2107
O 13.0968 4.50468 14.6495
H 13.5338 4.83275 15.4555
H 13.1108 3.52391 14.6756
O 10.4764 0.826413 14.6252
H 10.0122 1.16132 13.8132
H 9.59458 1.37665 16.055
O 10.5011 5.4443 14.6274
H 10.0449 5.12894 13.8159
H 11.4091 5.10757 14.5893
O 13.0458 1.81927 10.1407
H 13.8526 1.25697 11.6442
H 13.9021 1.23316 13.1863
O 13.0823 1.74005 14.6774
H 13.5354 1.36687 15.4979
H 12.176 1.41761 14.6865
O 9.18522 4.51587 16.8726
H 9.17107 3.53457 16.8099
H 9.65509 4.8358 16.0366
O 9.15849 4.56671 12.3876
H 8.25908 4.88843 12.3855
H 9.60141 4.86395 11.5457
O 10.4393 5.43213 10.1082
H 10.0317 5.09026 9.28749
H 11.3816 5.11756 10.1235
O 10.4455 0.904532 10.1404
H 10.4565 7.19689 10.1486
H 11.3824 8.47729 10.1718
O 14.3655 0.895095 12.3735
H 13.9009 1.12418 17.7499
H 15.3532 5.15337 16.9142
O 14.3775 0.815881 16.9335
H 14.4041 6.44799 16.915
H 13.8992 8.5673 16.1104
O 14.3871 5.46077 16.9059
H 15.288 8.57942 16.8906
H 13.5705 8.84415 13.8545
O 9.15742 1.75197 16.8723
H 6.58211 7.20872 16.9013
H 10.5126 7.22367 14.6781
O 1.35166 9.13378 12.3759
H 1.83623 8.84234 11.5691
H 1.34276 10.1131 12.3432
O 5.24243 11.8771 10.1498
H 5.65506 12.2549 10.9899
H 4.31498 12.1969 10.1731
O 6.52231 12.814 12.4157
H 6.04864 12.5273 13.2516
H 6.52087 13.7998 12.417
O 5.20681 11.8933 14.6625
H 5.19175 10.9063 14.6656
H 4.29348 12.1809 14.6835
O 2.61192 8.20972 14.6483
H 2.1847 8.55426 13.8346
H 3.53616 8.52009 14.6311
O 2.61698 12.8156 14.671
H 2.61242 13.8067 14.7081
H 2.11484 12.5187 15.4751
O 5.262 9.11954 10.1248
H 5.26726 10.1257 10.0952
H 5.68949 8.84667 9.32073
O 5.22428 9.12204 14.6573
H 5.70436 8.77725 15.4273
H 5.69433 8.79822 13.8669
O 1.33198 11.9255 16.9235
H 1.75114 12.27 17.7464
H 0.40438 12.2279 16.9544
O 1.32787 11.9041 12.4002
H 0.397861 12.2924 12.4144
H 1.78675 12.2409 13.2128
O 2.6356 12.7903 10.1339
H 2.14415 12.4897 10.8926
H 2.12797 12.4582 9.33721
O 2.64895 8.18618 10.1255
H 2.67175 7.22808 10.1458
H 3.59144 8.47263 10.1172
O 6.52948 8.23352 12.4016
H 7.4515 8.56089 12.3983
H 6.09344 8.54389 11.6072
O 6.55506 8.20424 16.9013
H 7.48186 8.5036 16.9204
H 9.61209 8.79463 17.7094
O 6.51829 12.7912 16.9253
H 6.03506 12.4613 16.1495
H 6.04049 12.4384 17.7203
O 1.315 9.15549 16.8989
H 1.77998 8.8648 16.0917
H 1.35908 10.134 16.8841
O 9.1554 9.11586 12.4117
H 9.65277 8.75834 11.6477
H 9.60849 8.78108 13.2305
O 13.0492 11.8651 10.1734
H 13.0157 10.8871 10.185
H 12.1232 12.1899 10.1816
O 14.3749 12.8471 12.3897
H 13.9076 12.4927 11.5988
H 14.3577 13.812 12.3398
O 13.0575 11.9226 14.6454
H 13.4844 12.2998 13.8299
H 12.1051 12.234 14.5957
O 10.4689 8.20439 14.6817
H 11.4158 8.53736 14.657
H 9.65985 8.78385 16.1351
O 10.4306 12.7901 14.6391
H 9.94406 12.4417 13.8368
H 9.95559 12.4417 15.426
O 13.0486 9.09898 10.1585
H 13.536 8.74377 10.9357
H 15.3412 8.50832 12.3799
O 13.0723 9.14644 14.6303
H 13.1114 10.1397 14.6221
H 14.4196 7.1901 12.4065
O 9.12242 11.896 16.9029
H 8.1836 12.1624 16.9475
H 9.11875 10.9166 16.9269
O 9.11625 11.8784 12.3903
H 8.16588 12.1889 12.394
H 9.08247 10.9054 12.3761
O 10.4735 12.8383 10.1816
H 10.4407 13.8222 10.2213
H 9.95576 12.5284 10.9552
O 10.4496 8.19654 10.1766
H 6.53125 14.5582 7.92305
H 10.4369 14.5417 14.583
O 14.4007 8.19828 12.3937
H 13.8691 12.4294 16.1656
H 13.8864 12.4506 17.7009
O 14.3599 8.23542 16.8996
H 14.3508 14.5247 16.9601
H 6.52686 14.5855 16.9975
O 14.3494 12.7618 16.9394
H 14.3369 14.5747 7.94592
H 14.3419 14.5825 3.38521
O 9.16142 9.12891 16.9285
H 2.6305 14.5635 10.0906
H 6.54937 14.5799 3.39499
384
 Atoms. Timestep: 83
O 1.31993 1.78329 3.33387
H 1.27098 2.78901 3.29594
H 0.411616 1.46206 3.32
O 5.28418 4.57738 1.11931
H 5.75147 4.95125 1.91604
H 5.78415 4.89403 0.323949
O 6.5209 5.51758 3.37632
H 6.05078 5.23731 4.21428
H 6.48868 6.51815 3.36068
O 5.23578 4.55429 5.64662
H 4.34919 4.89406 5.67099
H 5.71342 4.88516 6.44829
O 2.62161 0.876617 5.57473
H 2.20037 1.19062 4.72524
H 3.52066 1.20737 5.57251
O 2.61854 5.47119 5.62323
H 2.59174 6.4363 5.65283
H 2.13644 5.16169 6.47748
O 5.26189 1.80095 1.12167
H 5.27427 2.82636 1.13772
H 5.70185 1.48713 1.95131
O 5.24572 1.7841 5.62498
H 5.71064 1.46389 6.46961
H 5.25814 2.75768 5.6506
O 1.35244 4.53117 7.90028
H 1.35219 3.55774 7.89412
H 1.78255 4.84095 8.73897
O 1.33699 4.5356 3.35942
H 1.84288 4.85967 2.56453
H 1.74947 4.89129 4.15951
O 2.65775 5.43665 1.1252
H 2.63673 6.41214 1.09927
H 3.61053 5.21246 1.04578
O 2.65244 0.880933 1.09749
H 2.19054 1.21104 1.8862
H 3.53193 1.24363 1.10891
O 6.54796 0.852963 3.38153
H 6.10381 1.13568 4.21198
H 8.2468 1.53351 3.34549
O 6.51294 0.830906 7.88129
H 6.04637 1.18225 8.66877
H 8.23789 1.37328 7.86252
O 6.55984 5.49442 7.89343
H 7.48866 5.17063 7.85796
H 6.59685 6.48828 7.92501
O 1.31234 1.74151 7.85113
H 1.7412 1.4475 7.02122
H 0.378451 1.39487 7.88805
O 9.14145 1.81317 3.32075
H 9.06996 2.79407 3.31113
H 9.95943 1.1869 1.86804
O 13.0636 4.5228 1.06346
H 13.09 3.508 1.07666
H 13.5036 4.83226 0.260908
O 14.3767 5.43833 3.33464
H 15.2597 5.11283 3.31831
H 13.9145 5.05924 2.51025
O 13.0629 4.55294 5.6034
H 13.4607 4.87722 4.76254
H 12.1718 4.85662 5.61215
O 10.4579 0.892465 5.56169
H 9.98569 1.26711 4.7463
H 11.3954 1.20412 5.58054
O 10.4361 5.45374 5.59201
H 10.0101 5.2088 4.79231
H 10.4385 6.41149 5.61809
O 13.0795 1.75139 1.1057
H 12.1325 1.38892 1.11366
H 13.4928 1.38267 1.87893
O 13.0752 1.78106 5.6368
H 13.5016 1.45794 6.43271
H 13.0912 2.76768 5.70479
O 9.15341 4.5069 7.83716
H 9.11662 3.50307 7.78642
H 9.63572 4.76254 7.0729
O 9.12833 4.58047 3.32362
H 8.21129 4.94204 3.28231
H 9.58187 4.86313 2.54489
O 10.4394 5.41558 1.05506
H 10.0258 5.08445 0.21339
H 11.3936 5.06939 1.08952
O 10.4434 0.883632 1.09118
H 10.0171 1.21179 0.275897
H 13.8943 1.1368 4.20527
O 14.3613 0.836805 3.38638
H 13.8575 1.16265 8.70686
H 13.9123 5.12808 7.03579
O 14.3579 0.850292 7.90312
H 13.0197 2.83966 10.1167
H 12.0932 1.56684 10.1083
O 14.3904 5.46064 7.85894
H 15.3108 5.11324 7.82906
H 14.282 7.23623 7.83251
O 9.1388 1.7326 7.85566
H 9.56917 1.42507 7.02454
H 9.93788 1.17948 9.30627
O 1.3436 9.12862 3.3806
H 1.79227 8.76621 4.17127
H 1.34686 10.1235 3.36452
O 5.23066 11.8745 1.11085
H 5.15559 10.9044 1.05573
H 4.2884 12.1655 1.1541
O 6.565 12.8027 3.34522
H 7.49499 12.4577 3.30602
H 6.06426 12.419 2.55191
O 5.2533 11.9163 5.62638
H 5.73175 12.1984 6.39076
H 5.7347 12.2864 4.85137
O 2.63489 8.23334 5.62226
H 3.59332 8.55813 5.6713
H 2.18857 8.58156 6.45971
O 2.63411 12.8082 5.63114
H 2.65443 13.8061 5.61724
H 3.59421 12.5206 5.67958
O 5.22066 9.10899 1.08491
H 4.30794 8.77431 1.05307
H 5.63125 8.77538 0.278438
O 5.23662 9.16205 5.62162
H 5.67791 8.89127 4.8152
H 5.23139 10.1507 5.63891
O 1.31334 11.8711 7.87969
H 1.33438 10.8945 7.82996
H 1.78668 12.2257 7.06074
O 1.33384 11.9019 3.36936
H 0.435165 12.2425 3.39827
H 1.76753 12.2699 4.202
O 2.61913 12.8136 1.10079
H 2.59432 13.7947 1.16136
H 2.1482 12.5318 1.90178
O 2.60408 8.20558 1.0831
H 2.11114 8.56197 0.289287
H 2.15116 8.50958 1.93884
O 6.53828 8.26592 3.35687
H 7.45001 8.59671 3.31818
H 6.08802 8.59863 2.52117
O 6.55183 8.25972 7.86521
H 6.10845 8.61369 7.0537
H 7.48981 8.52448 7.8167
O 6.57279 12.7784 7.90889
H 6.12389 12.487 8.72612
H 7.51181 12.4554 7.95549
O 1.31768 9.10552 7.89287
H 0.390426 8.75557 7.89817
H 1.76528 8.73988 8.69662
O 9.15378 9.11132 3.35185
H 9.60399 8.73351 2.58691
H 9.6162 8.8013 4.1759
O 13.0425 11.8446 1.10783
H 13.0175 10.8987 1.18754
H 12.0852 12.1233 1.07742
O 14.368 12.7679 3.37317
H 13.8709 12.4469 4.15013
H 13.8949 12.4234 2.5939
O 13.0415 11.8969 5.63538
H 12.1223 12.2538 5.68612
H 13.4752 12.2326 6.45452
O 10.4498 8.22427 5.64684
H 11.3906 8.5161 5.61249
H 10.0112 8.52644 6.44021
O 10.4455 12.8323 5.6133
H 10.0061 12.5251 4.76323
H 10.4374 13.8301 5.58114
O 13.0476 9.07793 1.09804
H 13.5199 8.80836 0.314206
H 13.523 8.73878 1.86985
O 13.0592 9.13949 5.60508
H 13.5274 8.85987 4.78455
H 13.1159 10.1357 5.64817
O 9.19288 11.9072 7.89741
H 9.64931 12.2231 7.12014
H 9.6748 12.2297 8.69209
O 9.15572 11.8667 3.34036
H 9.17642 10.9231 3.33178
H 9.63882 12.181 2.49558
O 10.4513 12.8042 1.06915
H 9.96759 12.4843 0.270468
H 10.4495 13.7878 1.03977
O 10.4495 8.17555 1.11927
H 10.4853 7.22684 1.14552
H 11.3879 8.46997 1.14561
O 14.3653 8.20214 3.36001
H 14.3875 7.17551 3.35703
H 15.3 8.5361 3.4074
O 14.3291 8.21047 7.89177
H 13.9468 8.54791 7.04085
H 13.5445 8.79457 9.38492
O 14.3478 12.8012 7.92588
H 13.9513 12.3954 8.71081
H 15.2448 12.4375 7.9136
O 9.14669 9.14724 7.90765
H 9.20329 10.1702 8.00254
H 9.61417 8.81947 8.75563
O 1.33766 1.74532 12.3888
H 1.733 1.4362 11.5773
H 0.422852 1.44965 12.3388
O 5.26821 4.54303 10.149
H 5.71909 4.88061 10.9571
H 5.77552 4.90526 9.34502
O 6.54387 5.48206 12.4046
H 6.10254 5.18909 13.2003
H 6.53612 6.48797 12.4198
O 5.2328 4.51762 14.6585
H 5.16778 3.52571 14.6519
H 4.30585 4.83912 14.7231
O 2.64033 0.867929 14.6584
H 2.12705 1.19081 15.4894
H 2.13142 1.24143 13.9136
O 2.63549 5.43478 14.7039
H 2.58631 6.41901 14.7088
H 2.13629 5.15143 15.4931
O 5.2346 1.77667 10.1508
H 4.2899 1.49773 10.1329
H 5.25305 2.77516 10.1383
O 5.24617 1.7507 14.674
H 5.73639 1.43517 15.4567
H 4.30106 1.4266 14.653
O 1.33537 4.51864 16.9529
H 1.33332 3.52555 16.9851
H 1.84069 4.84397 17.7727
O 1.37165 4.50167 12.4191
H 1.36042 3.50842 12.3718
H 1.87793 4.90201 13.2205
O 2.6432 5.42877 10.1415
H 2.20986 5.13251 10.9595
H 3.59535 5.17458 10.1591
O 2.63806 0.853444 10.1052
H 2.1644 1.15793 9.3102
H 6.07715 1.24546 11.6324
O 6.55459 0.883857 12.3935
H 6.07295 1.22257 13.231
H 8.21666 1.43909 12.3887
O 6.56369 0.838776 16.9223
H 6.18922 1.17041 17.7582
H 8.23046 1.392 16.8605
O 6.58949 5.44317 16.9025
H 6.08857 5.0553 16.1172
H 7.53348 5.11698 16.895
O 1.3277 1.75583 16.9179
H 0.403114 1.40507 16.8981
H 1.78264 1.36351 17.7094
O 9.13851 1.80344 12.403
H 9.12735 2.80345 12.4122
H 9.90019 1.23771 10.9089
O 13.0617 4.58738 10.1136
H 13.5456 4.93576 10.925
H 13.5644 4.94296 9.29504
O 14.4102 5.43085 12.3988
H 15.3325 5.10404 12.4323
H 13.9205 5.03136 13.2125
O 13.0964 4.50677 14.6498
H 13.5143 4.8421 15.458
H 13.1219 3.52707 14.6574
O 10.4787 0.821336 14.6259
H 10.0237 1.16573 13.8055
H 9.58563 1.35685 16.0461
O 10.502 5.44081 14.6254
H 10.0368 5.12585 13.8184
H 11.4069 5.11841 14.5689
O 13.0501 1.81941 10.1401
H 13.8339 1.26278 11.6737
H 13.9121 1.25469 13.1866
O 13.0866 1.73879 14.6784
H 13.5505 1.34778 15.5052
H 12.1861 1.43326 14.6908
O 9.18454 4.51791 16.88
H 9.15419 3.53705 16.7855
H 9.64872 4.84991 16.024
O 9.16329 4.56649 12.3886
H 8.27164 4.86779 12.3842
H 9.61994 4.84478 11.5384
O 10.4397 5.42966 10.1114
H 10.045 5.09247 9.28474
H 11.3883 5.1132 10.1498
O 10.4437 0.904047 10.1374
H 10.4528 7.18484 10.1579
H 11.3794 8.46959 10.1747
O 14.3661 0.891584 12.3708
H 13.898 1.12442 17.7532
H 15.3785 5.15393 16.8991
O 14.3763 0.816913 16.9295
H 14.4087 6.45323 16.9301
H 13.875 8.56392 16.1243
O 14.3939 5.46362 16.903
H 15.2894 8.57448 16.9009
H 13.5957 8.85523 13.8765
O 9.15172 1.75132 16.8692
H 6.56798 7.19959 16.9044
H 10.5154 7.21761 14.6889
O 1.35445 9.12925 12.3803
H 1.84814 8.84804 11.5736
H 1.3366 10.1078 12.332
O 5.24294 11.8691 10.1445
H 5.63874 12.2723 11.0028
H 4.31335 12.1774 10.1821
O 6.52248 12.8105 12.4127
H 6.0535 12.5373 13.2716
H 6.521 13.798 12.397
O 5.20708 11.893 14.6618
H 5.19365 10.9043 14.6727
H 4.30623 12.1707 14.6998
O 2.60692 8.20246 14.6459
H 2.18006 8.55409 13.836
H 3.52985 8.50378 14.6296
O 2.61956 12.8148 14.6731
H 2.61231 13.8106 14.7301
H 2.08547 12.5122 15.4634
O 5.27084 9.11617 10.1312
H 5.28046 10.1367 10.0773
H 5.66161 8.84928 9.32531
O 5.22206 9.11999 14.6522
H 5.69502 8.76802 15.4141
H 5.68233 8.79363 13.8645
O 1.33459 11.9316 16.9198
H 1.73891 12.2831 17.748
H 0.409783 12.2298 16.9523
O 1.32959 11.9047 12.3991
H 0.39722 12.3278 12.4131