384
 Atoms. Timestep: 80
O 1.33157 1.77245 3.34733
H 1.26662 2.752 3.24658
H 0.402743 1.4327 3.29763
O 5.28758 4.57887 1.14307
H 5.7445 4.95861 1.93136
H 5.78824 4.87906 0.352338
O 6.51888 5.5251 3.36807
H 6.06208 5.2917 4.20473
H 6.47196 6.50818 3.29828
O 5.24883 4.54816 5.65374
H 4.33199 4.93579 5.6691
H 5.74559 4.86045 6.4386
O 2.60477 0.878631 5.56443
H 2.22035 1.15283 4.69838
H 3.54185 1.21393 5.56749
O 2.62277 5.47118 5.6218
H 2.57072 6.45805 5.64139
H 2.15155 5.18659 6.44118
O 5.25797 1.79712 1.13798
H 5.24618 2.78478 1.15301
H 5.66195 1.49198 1.98116
O 5.24882 1.78024 5.62634
H 5.70265 1.48203 6.44732
H 5.25489 2.76199 5.63393
O 1.37172 4.5464 7.90652
H 1.36488 3.56053 7.89217
H 1.74341 4.86463 8.76444
O 1.3437 4.51177 3.35778
H 1.8433 4.82034 2.57641
H 1.71257 4.91086 4.18559
O 2.64468 5.42348 1.141
H 2.58421 6.41027 1.10663
H 3.61127 5.25874 0.970729
O 2.64486 0.880577 1.0912
H 2.16737 1.20009 1.89027
H 3.54964 1.29542 1.0813
O 6.55284 0.831185 3.39153
H 6.1373 1.11436 4.238
H 8.18765 1.53271 3.34295
O 6.49865 0.823457 7.87065
H 6.00978 1.21215 8.63638
H 8.23216 1.32947 7.90235
O 6.55549 5.51942 7.90137
H 7.48123 5.19618 7.84895
H 6.59158 6.50205 7.9809
O 1.30444 1.72078 7.83841
H 1.71682 1.45112 6.98962
H 0.392365 1.36482 7.93012
O 9.1537 1.81042 3.31023
H 9.05883 2.79247 3.2889
H 9.92232 1.15074 1.90029
O 13.0613 4.53273 1.05439
H 13.0935 3.55223 1.10032
H 13.486 4.84798 0.217798
O 14.3905 5.44514 3.33094
H 15.3222 5.0745 3.31921
H 13.9299 5.03695 2.55617
O 13.0692 4.57303 5.60937
H 13.4096 4.88952 4.74005
H 12.1156 4.86427 5.66865
O 10.4645 0.90997 5.55502
H 9.9882 1.27279 4.77647
H 11.4037 1.19594 5.58605
O 10.4205 5.45353 5.60481
H 9.99482 5.21351 4.72971
H 10.4313 6.44008 5.65015
O 13.0814 1.75652 1.11149
H 12.1731 1.35999 1.10325
H 13.5245 1.32102 1.89371
O 13.0662 1.79162 5.65361
H 13.5011 1.41651 6.46238
H 13.0962 2.76264 5.78584
O 9.13771 4.4895 7.83445
H 9.05822 3.51476 7.76109
H 9.7035 4.73348 7.0403
O 9.12885 4.5745 3.3203
H 8.22896 4.94919 3.22925
H 9.64628 4.84946 2.50966
O 10.42 5.40756 1.04899
H 10.0496 5.08867 0.19769
H 11.3407 5.08123 1.12032
O 10.4289 0.884604 1.0952
H 10.029 1.22515 0.2623
H 13.8849 1.12173 4.22533
O 14.3588 0.842996 3.41446
H 13.8351 1.14045 8.67901
H 13.9179 5.17477 7.06914
O 14.3662 0.843803 7.90297
H 13.0297 2.81362 10.1044
H 12.1046 1.60931 10.063
O 14.4023 5.48141 7.86461
H 15.3226 5.12629 7.81085
H 14.2107 7.24494 7.82844
O 9.14035 1.71952 7.86093
H 9.55082 1.43524 7.01015
H 9.942 1.12848 9.30498
O 1.34599 9.13083 3.40566
H 1.78737 8.71682 4.18494
H 1.36347 10.1078 3.35507
O 5.24497 11.8761 1.115
H 5.13565 10.8962 0.998213
H 4.30331 12.1552 1.19751
O 6.56075 12.7995 3.33595
H 7.48548 12.4652 3.2963
H 6.0499 12.3878 2.60391
O 5.2466 11.8886 5.62209
H 5.75385 12.1589 6.43505
H 5.71487 12.3145 4.86231
O 2.63361 8.23189 5.6128
H 3.57407 8.51139 5.68418
H 2.21496 8.58147 6.42867
O 2.63089 12.7969 5.63134
H 2.65088 13.7804 5.62684
H 3.57096 12.5219 5.75141
O 5.21467 9.10924 1.09935
H 4.28218 8.77809 1.06184
H 5.60698 8.77613 0.252377
O 5.23759 9.1476 5.62519
H 5.67704 8.90487 4.76962
H 5.20683 10.1296 5.67563
O 1.30354 11.8736 7.87796
H 1.34321 10.8942 7.79523
H 1.74553 12.2602 7.09043
O 1.34538 11.9063 3.36243
H 0.433367 12.2887 3.37318
H 1.75466 12.286 4.1721
O 2.61865 12.8093 1.0711
H 2.55567 13.7878 1.15625
H 2.12855 12.5172 1.88202
O 2.60382 8.21229 1.08746
H 2.10351 8.5655 0.326764
H 2.1893 8.45107 1.94933
O 6.54371 8.26039 3.34039
H 7.46378 8.62119 3.29512
H 6.10079 8.59637 2.53245
O 6.5255 8.28231 7.87072
H 6.08029 8.6467 7.07925
H 7.505 8.44698 7.76692
O 6.58253 12.7841 7.9171
H 6.13096 12.5562 8.75935
H 7.50697 12.4597 7.9774
O 1.32077 9.09041 7.88578
H 0.408143 8.73471 7.88562
H 1.76127 8.70696 8.67924
O 9.1393 9.12496 3.34789
H 9.56859 8.70489 2.56317
H 9.58194 8.8325 4.17139
O 13.0548 11.8465 1.08481
H 13.0543 10.868 1.27774
H 12.099 12.0677 1.04139
O 14.3939 12.7622 3.36915
H 13.8773 12.4415 4.139
H 13.9287 12.4085 2.57933
O 13.0396 11.8861 5.61684
H 12.122 12.2487 5.70483
H 13.4708 12.2256 6.42992
O 10.4328 8.23713 5.64593
H 11.3842 8.47906 5.58201
H 9.97429 8.51869 6.4786
O 10.4562 12.8361 5.60771
H 10.0492 12.5701 4.75069
H 10.4579 13.8189 5.608
O 13.0385 9.07218 1.08977
H 13.5351 8.83545 0.266522
H 13.5095 8.70044 1.87172
O 13.0498 9.14643 5.60755
H 13.5164 8.89781 4.77504
H 13.1604 10.1178 5.72563
O 9.18296 11.8959 7.88563
H 9.67671 12.1943 7.07465
H 9.67789 12.1796 8.68794
O 9.13961 11.8678 3.33501
H 9.16048 10.8633 3.33588
H 9.60133 12.1577 2.51668
O 10.4585 12.7911 1.06562
H 9.97072 12.4351 0.284518
H 10.467 13.7717 1.00379
O 10.4455 8.17895 1.12956
H 10.4951 7.1833 1.22094
H 11.3792 8.48277 1.19346
O 14.3418 8.19733 3.36604
H 14.379 7.20844 3.36284
H 15.2481 8.56101 3.45797
O 14.3128 8.21962 7.90226
H 14.0221 8.5741 7.02247
H 13.583 8.82405 9.39166
O 14.3418 12.8132 7.92585
H 13.9684 12.3395 8.7127
H 15.2431 12.4082 7.87079
O 9.11798 9.14066 7.91134
H 9.18467 10.1153 8.06372
H 9.55019 8.81396 8.73648
O 1.3348 1.74456 12.3968
H 1.72557 1.45115 11.5299
H 0.38935 1.45871 12.3173
O 5.26573 4.54787 10.1508
H 5.69565 4.87283 10.9751
H 5.77328 4.90241 9.38302
O 6.55721 5.50287 12.3805
H 6.12101 5.22198 13.2233
H 6.57335 6.48436 12.3844
O 5.2264 4.5113 14.6448
H 5.11859 3.53295 14.6281
H 4.31741 4.86292 14.7649
O 2.64384 0.865104 14.6555
H 2.15674 1.13866 15.4813
H 2.10443 1.30459 13.9548
O 2.65513 5.4271 14.7147
H 2.56727 6.40987 14.7169
H 2.09962 5.13583 15.4805
O 5.24152 1.7804 10.1636
H 4.28898 1.52516 10.1452
H 5.29397 2.76169 10.1392
O 5.2486 1.74575 14.6816
H 5.78404 1.4378 15.4452
H 4.3193 1.42811 14.622
O 1.34441 4.51708 16.9492
H 1.33934 3.53751 17.0059
H 1.83928 4.86352 17.7313
O 1.37901 4.50137 12.4191
H 1.36195 3.52402 12.3316
H 1.92386 4.94466 13.1196
O 2.63276 5.44856 10.1229
H 2.19452 5.18479 10.9638
H 3.60406 5.27301 10.1521
O 2.64595 0.859857 10.1003
H 2.15826 1.178 9.30683
H 6.09226 1.30141 11.6288
O 6.56737 0.884859 12.3922
H 6.12988 1.21358 13.2134
H 8.2437 1.38894 12.3712
O 6.58211 0.828169 16.9171
H 6.29954 1.20472 17.7935
H 8.22033 1.37972 16.8596
O 6.58291 5.43773 16.9076
H 6.08318 5.01145 16.1703
H 7.51939 5.13952 16.931
O 1.33974 1.7613 16.9217
H 0.417078 1.425 16.8322
H 1.77247 1.2999 17.6832
O 9.13422 1.81526 12.409
H 9.12482 2.79546 12.4259
H 9.85245 1.21239 10.8632
O 13.0541 4.5913 10.0931
H 13.5108 4.95751 10.8853
H 13.5361 4.95431 9.30283
O 14.4049 5.42619 12.4013
H 15.3456 5.12464 12.448
H 13.9117 5.00398 13.1522
O 13.0944 4.51811 14.651
H 13.4821 4.87413 15.4911
H 13.151 3.53463 14.6218
O 10.4822 0.807408 14.6303
H 10.0709 1.16555 13.8103
H 9.54608 1.32605 16.0668
O 10.4991 5.43247 14.626
H 10.0071 5.1143 13.8326
H 11.4392 5.13678 14.5184
O 13.0639 1.82634 10.1431
H 13.7583 1.29782 11.6902
H 13.9766 1.28829 13.1796
O 13.1067 1.73916 14.6871
H 13.561 1.33077 15.4658
H 12.1559 1.45358 14.7077
O 9.18355 4.52753 16.9039
H 9.10473 3.55384 16.7291
H 9.59456 4.87165 16.0673
O 9.18695 4.56463 12.3957
H 8.22817 4.85363 12.3707
H 9.64445 4.78845 11.5486
O 10.4388 5.41989 10.1241
H 10.0798 5.08652 9.26863
H 11.375 5.11623 10.2079
O 10.4366 0.906682 10.1306
H 10.4346 7.20156 10.186
H 11.3942 8.45662 10.1817
O 14.3672 0.883393 12.3697
H 13.9019 1.12965 17.7273
H 15.3672 5.1809 16.8642
O 14.3756 0.818938 16.9217
H 14.4138 6.4511 16.966
H 13.8146 8.58024 16.1254
O 14.419 5.47413 16.8977
H 15.2631 8.56753 16.9082
H 13.6701 8.87599 13.9062
O 9.13396 1.74923 16.8603
H 6.53511 7.21345 16.9154
H 10.5235 7.19734 14.7183
O 1.35842 9.11809 12.3953
H 1.86914 8.85301 11.5959
H 1.29831 10.1035 12.3112
O 5.25219 11.85 10.1318
H 5.58496 12.2746 10.9675
H 4.30728 12.1262 10.1872
O 6.53047 12.7974 12.4021
H 6.10679 12.5823 13.2724
H 6.53099 13.7802 12.3399
O 5.21714 11.89 14.6541
H 5.20655 10.9118 14.6816
H 4.26415 12.1823 14.7365
O 2.59036 8.18357 14.6406
H 2.16096 8.56625 13.839
H 3.53292 8.47378 14.6191
O 2.62986 12.8175 14.6773
H 2.61578 13.7975 14.779
H 2.04266 12.4979 15.4003
O 5.28654 9.11113 10.1538
H 5.30666 10.0942 10.0503
H 5.62855 8.80761 9.25677
O 5.20966 9.11693 14.638
H 5.68917 8.72844 15.4105
H 5.6569 8.77264 13.8313
O 1.35149 11.9486 16.9048
H 1.72466 12.317 17.7391
H 0.412242 12.2441 16.9358
O 1.33248 11.9097 12.393
H 0.472342 12.3998 12.3981
H 1.85265 12.2396 13.159
O 2.65528 12.8018 10.1154
H 2.07176 12.5168 10.8854
H 2.09426 12.5556 9.33471
O 2.62604 8.17873 10.1185
H 2.62123 7.17884 10.1377
H 3.58729 8.39928 10.1218
O 6.52241 8.23995 12.4122
H 7.42722 8.61521 12.4343
H 6.01552 8.52637 11.5988
O 6.54899 8.19726 16.8874
H 7.49685 8.46035 16.93
H 9.57608 8.79214 17.7629
O 6.53777 12.7969 16.9322
H 6.04433 12.4423 16.1546
H 6.08971 12.4243 17.7183
O 1.30408 9.15292 16.9146
H 1.76455 8.86801 16.0906
H 1.41012 10.1326 16.8896
O 9.18723 9.12652 12.4088
H 9.73158 8.72458 11.6916
H 9.53233 8.78787 13.2614
O 13.0447 11.8733 10.177
H 13.0038 10.8935 10.2232
H 12.1234 12.2149 10.1822
O 14.3699 12.8724 12.3852
H 13.9342 12.4535 11.6048
H 14.3692 13.8599 12.3071
O 13.0491 11.9471 14.6402
H 13.4105 12.3612 13.8224
H 12.0959 12.1957 14.5509
O 10.4679 8.17856 14.6805
H 11.3824 8.5345 14.6567
H 9.67976 8.7913 16.1608
O 10.4307 12.8188 14.6642
H 9.98166 12.4839 13.8532
H 9.9807 12.3879 15.424
O 13.0347 9.10932 10.1665
H 13.4743 8.69892 10.9501
H 15.3508 8.4938 12.3582
O 13.0531 9.16337 14.6345
H 13.2077 10.1394 14.7115
H 14.3902 7.21673 12.3882
O 9.12329 11.9015 16.9078
H 8.16948 12.1143 17.073
H 9.14145 10.9167 16.9674
O 9.12558 11.8872 12.3929
H 8.19409 12.2151 12.3655
H 9.0317 10.9031 12.3305
O 10.4738 12.8183 10.1775
H 10.4059 13.7979 10.2663
H 9.88178 12.4935 10.897
O 10.445 8.18312 10.1963
H 6.55688 14.5487 7.93607
H 10.4187 14.5365 14.5543
O 14.4137 8.19988 12.399
H 13.8398 12.3603 16.1875
H 13.8908 12.5398 17.7823
O 14.3419 8.23998 16.8858
H 14.3537 14.544 16.9474
H 6.56662 14.5599 17.1289
O 14.3681 12.7742 16.9177
H 14.3416 14.5691 7.95004
H 14.332 14.5576 3.37646
O 9.16549 9.13838 16.9282
H 2.65191 14.5868 10.079
H 6.58052 14.5578 3.44349
384
 Atoms. Timestep: 90
O 1.34559 1.72271 3.38261
H 1.321 2.70197 3.30134
H 0.404601 1.38968 3.36782
O 5.31009 4.57791 1.20168
H 5.72648 4.94728 2.02535
H 5.85172 4.83565 0.432677
O 6.52113 5.55709 3.33142
H 6.10051 5.34879 4.18356
H 6.53069 6.53964 3.23558
O 5.29238 4.55288 5.67299
H 4.37887 4.97519 5.75274
H 5.76019 4.92495 6.45024
O 2.57151 0.903804 5.54746
H 2.19024 1.17855 4.68533
H 3.51684 1.23103 5.57816
O 2.62996 5.4917 5.60938
H 2.57765 6.48279 5.59876
H 2.21995 5.18688 6.42906
O 5.23089 1.78437 1.19393
H 5.21972 2.75779 1.25247
H 5.56187 1.48429 2.0726
O 5.25696 1.77881 5.63812
H 5.69236 1.48498 6.45287
H 5.25347 2.75776 5.63512
O 1.42865 4.59746 7.91832
H 1.41181 3.60649 7.94589
H 1.81452 4.85686 8.79785
O 1.35957 4.43361 3.35929
H 1.9353 4.77622 2.65198
H 1.77001 4.83625 4.18369
O 2.62416 5.39822 1.18781
H 2.43414 6.36986 1.15139
H 3.58555 5.24412 0.990865
O 2.61244 0.884298 1.07891
H 2.17825 1.22747 1.89539
H 3.5296 1.29972 1.06632
O 6.57148 0.763952 3.43812
H 6.18129 1.07933 4.28318
H 8.22899 1.42302 3.33108
O 6.4553 0.817264 7.83676
H 5.96055 1.11799 8.64016
H 8.22816 1.29299 7.8876
O 6.55464 5.59675 7.93523
H 7.48817 5.31041 7.85702
H 6.54283 6.58091 7.98763
O 1.28072 1.67024 7.82385
H 1.58896 1.39096 6.93695
H 0.36721 1.30207 7.88243
O 9.16258 1.80879 3.25978
H 9.14444 2.78979 3.21504
H 9.81821 1.16174 1.85611
O 13.0568 4.56753 1.0302
H 13.09 3.59509 1.04443
H 13.5417 4.79555 0.182246
O 14.453 5.45278 3.32462
H 15.368 5.03273 3.33351
H 13.9898 5.07407 2.54837
O 13.0763 4.64245 5.63659
H 13.3857 4.94107 4.75548
H 12.0994 4.8821 5.7003
O 10.4846 0.966834 5.52668
H 10.0901 1.33617 4.71384
H 11.407 1.31124 5.4822
O 10.3767 5.46617 5.6276
H 9.93726 5.24073 4.74836
H 10.3684 6.45438 5.69386
O 13.0853 1.75254 1.12984
H 12.1717 1.40077 1.10132
H 13.5686 1.355 1.9247
O 13.0415 1.82264 5.72387
H 13.5055 1.36231 6.48155
H 13.1109 2.78498 5.85779
O 9.11276 4.44494 7.81304
H 8.96506 3.49369 7.79345
H 9.63823 4.7276 6.99543
O 9.14684 4.56196 3.28601
H 8.26754 4.96337 3.16399
H 9.65165 4.77831 2.43319
O 10.3749 5.38683 1.02824
H 10.0737 5.02599 0.167788
H 11.2898 5.09046 1.08242
O 10.388 0.86432 1.09698
H 9.90927 1.27632 0.336083
H 13.8482 1.15155 4.27908
O 14.3378 0.843574 3.49545
H 13.8689 1.16518 8.67236
H 13.9834 5.25252 7.07296
O 14.379 0.815292 7.90616
H 13.1699 2.8181 10.0586
H 12.133 1.57575 10.0687
O 14.4388 5.55245 7.87481
H 15.3607 5.1973 7.78715
H 14.1771 7.28201 7.86417
O 9.14825 1.68309 7.86314
H 9.52209 1.42661 6.98372
H 9.96508 1.05228 9.2427
O 1.35996 9.12656 3.46839
H 1.87034 8.87753 4.29774
H 1.50501 10.086 3.54478
O 5.26905 11.8837 1.13311
H 5.22501 10.8993 0.983759
H 4.37292 12.2759 1.18501
O 6.53389 12.7889 3.32837
H 7.44458 12.422 3.27928
H 6.06342 12.3472 2.60739
O 5.22349 11.8233 5.64444
H 5.72735 12.0931 6.48017
H 5.68333 12.2649 4.88256
O 2.64346 8.23047 5.59497
H 3.58853 8.44975 5.6057
H 2.21342 8.56912 6.40481
O 2.61279 12.7884 5.65451
H 2.63097 13.772 5.65664
H 3.52725 12.4787 5.81697
O 5.20136 9.11347 1.13434
H 4.25341 8.80725 1.1518
H 5.63916 8.78753 0.29915
O 5.2415 9.12068 5.63303
H 5.70155 8.93187 4.76382
H 5.16242 10.1026 5.6259
O 1.25089 11.8888 7.87636
H 1.37889 10.9122 7.77714
H 1.66935 12.2705 7.07958
O 1.37106 11.9361 3.34589
H 0.43606 12.27 3.33289
H 1.83604 12.2889 4.11552
O 2.59265 12.8052 0.997542
H 2.6219 13.7832 1.03333
H 2.1624 12.4236 1.80799
O 2.61677 8.22551 1.10724
H 2.02769 8.61897 0.441281
H 2.18012 8.49427 1.94241
O 6.57651 8.25121 3.29077
H 7.49828 8.62853 3.31235
H 6.1064 8.59639 2.51612
O 6.44876 8.35666 7.87312
H 6.04164 8.65453 7.03545
H 7.43425 8.50955 7.72822
O 6.59763 12.8162 7.96225
H 6.14136 12.5887 8.80427
H 7.49782 12.459 8.02225
O 1.3372 9.03991 7.86152
H 0.431439 8.67375 7.87778
H 1.79217 8.70654 8.66601
O 9.10986 9.16978 3.32218
H 9.5938 8.70769 2.58626
H 9.55953 8.8529 4.12566
O 13.0669 11.832 1.02745
H 13.1847 10.865 1.25296
H 12.1253 12.0708 1.01729
O 14.4623 12.7306 3.35341
H 13.9262 12.4249 4.11657
H 13.9902 12.4275 2.54778
O 13.0254 11.8656 5.57324
H 12.0817 12.1701 5.59619
H 13.4975 12.2292 6.34453
O 10.3894 8.26553 5.62752
H 11.329 8.5806 5.68119
H 10.0879 8.64061 6.50859
O 10.4949 12.8583 5.58743
H 10.0948 12.6384 4.72852
H 10.4772 13.8335 5.65422
O 13.0252 9.05421 1.07692
H 13.514 8.8127 0.240636
H 13.5519 8.61121 1.78925
O 13.053 9.17373 5.61041
H 13.4702 8.96702 4.7378
H 13.1001 10.1396 5.72659
O 9.14129 11.854 7.84019
H 9.66302 12.1285 7.02131
H 9.69378 12.1856 8.59313
O 9.07466 11.8638 3.32918
H 9.12374 10.8448 3.32131
H 9.52023 12.147 2.51324
O 10.4653 12.7422 1.05312
H 9.99563 12.4108 0.242871
H 10.4664 13.7122 0.917652
O 10.4346 8.17186 1.16559
H 10.4589 7.1617 1.21292
H 11.3487 8.5226 1.18021
O 14.2845 8.19011 3.39125
H 14.4165 7.22447 3.39856
H 15.1965 8.52475 3.476
O 14.2799 8.25501 7.92129
H 14.0343 8.61277 7.03419
H 13.5764 8.90868 9.39403
O 14.3146 12.8283 7.93697
H 13.8831 12.4033 8.7219
H 15.2221 12.4702 7.77744
O 9.05718 9.11179 7.91744
H 9.04156 10.0805 7.98929
H 9.44627 8.67654 8.68513
O 1.31258 1.75304 12.4114
H 1.79528 1.45511 11.5858
H 0.353561 1.49593 12.3448
O 5.26182 4.56734 10.1697
H 5.703 4.88275 10.9876
H 5.82169 4.91358 9.45199
O 6.59494 5.56335 12.3228
H 6.18423 5.30865 13.1916
H 6.66889 6.53031 12.3329
O 5.20367 4.49291 14.6238
H 5.08732 3.5286 14.6032
H 4.32755 4.89892 14.7865
O 2.63408 0.840019 14.6622
H 2.30067 1.10177 15.5395
H 2.12207 1.28622 13.9435
O 2.70341 5.4056 14.7517
H 2.5718 6.38445 14.7148
H 2.10294 5.0001 15.425
O 5.2531 1.80952 10.192
H 4.29099 1.59507 10.1949
H 5.2886 2.78669 10.1463
O 5.26743 1.73472 14.692
H 5.65849 1.32059 15.5063
H 4.38332 1.29035 14.7648
O 1.37596 4.51525 16.9443
H 1.37981 3.54574 17.0754
H 1.84865 4.8677 17.7238
O 1.39865 4.52608 12.3882
H 1.51607 3.55409 12.4762
H 2.04389 4.72432 13.0988
O 2.61487 5.53061 10.0708
H 2.25177 5.20502 10.9326
H 3.57066 5.28762 10.1373
O 2.66347 0.890476 10.092
H 2.20663 1.1489 9.25652
H 6.08662 1.3381 11.648
O 6.59864 0.889152 12.378
H 6.19377 1.19967 13.208
H 8.19694 1.4895 12.4277
O 6.64297 0.788171 16.9353
H 6.42893 1.32352 17.7448
H 8.18233 1.35225 16.8706
O 6.55884 5.42417 16.9289
H 6.18935 4.89883 16.1897
H 7.49157 5.11646 16.9452
O 1.37819 1.77119 16.9329
H 0.445984 1.47608 16.8111
H 1.69299 1.25935 17.7167
O 9.13454 1.82401 12.4199
H 8.97026 2.78106 12.4492
H 9.85862 1.26856 10.8266
O 13.0349 4.61042 10.034
H 13.5113 4.95304 10.8244
H 13.502 4.97918 9.24897
O 14.3901 5.42004 12.4038
H 15.3361 5.11379 12.503
H 13.9329 5.02509 13.1844
O 13.085 4.54254 14.6404
H 13.4995 4.85968 15.4957
H 13.1932 3.55847 14.7356
O 10.4935 0.758054 14.6308
H 10.1197 1.15986 13.8295
H 9.55351 1.3227 16.0479
O 10.4953 5.39422 14.6087
H 9.99106 5.12296 13.8005
H 11.4321 5.07734 14.4912
O 13.0742 1.85298 10.1377
H 13.7694 1.23948 11.6231
H 14.0759 1.15299 13.2421
O 13.1602 1.73081 14.6974
H 13.5694 1.31504 15.4845
H 12.2052 1.41257 14.7295
O 9.17588 4.54869 16.9496
H 9.05811 3.57549 16.7767
H 9.5528 4.94953 16.1506
O 9.24767 4.54239 12.4099
H 8.29691 4.87856 12.2547
H 9.65699 4.74801 11.5345
O 10.4465 5.39207 10.1598
H 10.1345 5.00931 9.29944
H 11.3966 5.10384 10.1907
O 10.3985 0.894918 10.099
H 10.433 7.18962 10.2297
H 11.4026 8.42303 10.1328
O 14.3597 0.876196 12.3594
H 13.9095 1.1448 17.6945
H 15.4225 5.20956 16.8499
O 14.3664 0.813893 16.8919
H 14.4625 6.46873 16.9698
H 13.8334 8.60025 16.0791
O 14.4886 5.49746 16.8758
H 15.1637 8.65355 16.7951
H 13.6817 8.8564 13.9654
O 9.08186 1.73682 16.8085
H 6.48797 7.19215 16.8954
H 10.5782 7.13191 14.7139
O 1.3863 9.08759 12.4257
H 1.89887 8.7982 11.6421
H 1.2228 10.0638 12.3693
O 5.24455 11.7989 10.1098
H 5.60736 12.1193 10.961
H 4.2824 11.9648 10.015
O 6.5345 12.7657 12.3709
H 6.13538 12.6079 13.2527
H 6.53548 13.74 12.2425
O 5.22872 11.8776 14.6571
H 5.24979 10.9021 14.6675
H 4.26195 12.1667 14.7659
O 2.54759 8.12023 14.623
H 2.12127 8.56497 13.8425
H 3.48616 8.42721 14.619
O 2.64479 12.8091 14.7048
H 2.64532 13.7857 14.7471
H 2.0364 12.4632 15.378
O 5.35397 9.09066 10.1965
H 5.36233 10.0693 10.1487
H 5.73507 8.7142 9.33245
O 5.175 9.08193 14.5941
H 5.69774 8.69733 15.3483
H 5.6299 8.76834 13.7809
O 1.36818 11.9964 16.8703
H 1.81337 12.3716 17.6639
H 0.411044 12.2085 16.8614
O 1.33421 11.9285 12.3756
H 0.543737 12.478 12.4655
H 1.95326 12.2449 13.0631
O 2.66684 12.8366 10.0811
H 2.13065 12.5383 10.9035
H 2.1561 12.6625 9.27424
O 2.59882 8.15936 10.0973
H 2.47837 7.16428 10.0789
H 3.55021 8.39938 10.1332
O 6.50442 8.24971 12.4438
H 7.3816 8.68892 12.3534
H 6.07554 8.57426 11.5784
O 6.53615 8.16658 16.8576
H 7.49022 8.41288 16.853
H 9.59153 8.77255 17.7556
O 6.57109 12.803 16.959
H 6.11292 12.4599 16.1507
H 6.08195 12.4814 17.7342
O 1.28425 9.15122 16.9454
H 1.73933 8.75441 16.1612
H 1.39452 10.1254 16.9499
O 9.26354 9.15417 12.4035
H 9.82203 8.68085 11.7418
H 9.52745 8.82326 13.2762
O 13.0267 11.8978 10.1922
H 12.9425 10.9177 10.299
H 12.1038 12.2375 10.2208
O 14.3544 12.9257 12.386
H 13.9278 12.537 11.5852
H 14.2786 13.9085 12.2068
O 13.0168 11.9972 14.6282
H 13.4426 12.3904 13.8413
H 12.0588 12.1297 14.666
O 10.4692 8.10905 14.6728
H 11.3542 8.4854 14.5811
H 9.72602 8.77382 16.2013
O 10.428 12.8641 14.7132
H 10.006 12.5298 13.8888
H 9.93228 12.4249 15.4456
O 13.0147 9.12831 10.1833
H 13.4351 8.73399 10.9868
H 15.3926 8.41782 12.3048
O 13.0394 9.1995 14.6507
H 13.1982 10.1611 14.7686
H 14.4268 7.23228 12.4512
O 9.11971 11.8963 16.9283
H 8.17195 12.1695 17.0527
H 9.19567 10.9117 16.9568
O 9.12103 11.9145 12.3901
H 8.21436 12.2782 12.3858
H 9.0934 10.9127 12.3421
O 10.4349 12.7672 10.1672
H 10.4111 13.7494 10.2264
H 9.89045 12.3642 10.8819
O 10.4472 8.1574 10.2329
H 6.47906 14.539 7.96893
H 10.4298 14.4928 14.5849
O 14.4451 8.2042 12.4126
H 13.8149 12.3909 16.1706
H 13.9679 12.5507 17.7892
O 14.2936 8.23169 16.8776
H 14.3544 14.5365 16.8978
H 6.62812 14.5038 17.083
O 14.3964 12.7974 16.8793
H 14.3652 14.54 7.95551
H 14.3046 14.5474 3.46783
O 9.18205 9.1604 16.9191
H 2.71134 14.6255 10.0709
H 6.5921 14.4882 3.41202
384
 Atoms. Timestep: 100
O 1.34524 1.67614 3.39267
H 1.36485 2.65243 3.49835
H 0.385605 1.43394 3.54298
O 5.31277 4.56752 1.23331
H 5.76777 4.92023 2.04795
H 5.86157 4.86314 0.479154
O 6.53093 5.59722 3.30113
H 6.17457 5.28027 4.14127
H 6.59335 6.58209 3.35796
O 5.33712 4.57884 5.70337
H 4.36402 4.859 5.691
H 5.76937 4.93088 6.51003
O 2.55517 0.91221 5.54568
H 2.13126 1.28687 4.74293
H 3.4954 1.28026 5.58736
O 2.63281 5.50472 5.59965
H 2.58273 6.50027 5.62527
H 2.2921 5.21794 6.43943
O 5.19948 1.78585 1.26003
H 5.25702 2.74333 1.32449
H 5.62687 1.40041 2.05736
O 5.25465 1.77654 5.63374
H 5.63447 1.45081 6.46165
H 5.30099 2.76191 5.70367
O 1.46533 4.62509 7.91976
H 1.39622 3.63664 7.8972
H 1.99768 4.93958 8.7077
O 1.38285 4.35647 3.37046
H 1.88204 4.69341 2.61037
H 1.84993 4.61871 4.22025
O 2.60945 5.38122 1.21084
H 2.5827 6.38716 1.20031
H 3.59263 5.20245 1.28869
O 2.58219 0.885426 1.07154
H 2.16967 1.18003 1.92012
H 3.55526 1.18323 1.10603
O 6.59834 0.715675 3.47933
H 6.1237 0.96952 4.29847
H 8.21826 1.45217 3.35207
O 6.41427 0.812973 7.82738
H 6.04166 1.12267 8.68872
H 8.18365 1.34331 7.78907
O 6.55985 5.66473 7.97245
H 7.49762 5.39995 7.93443
H 6.50068 6.63903 7.84323
O 1.25394 1.62929 7.81051
H 1.69425 1.36044 6.97259
H 0.302077 1.38729 7.8243
O 9.16965 1.80536 3.21864
H 9.04392 2.78174 3.23243
H 9.95872 1.20746 1.91456
O 13.0573 4.58846 1.00805
H 13.025 3.6249 1.00778
H 13.648 4.90907 0.261058
O 14.4988 5.45235 3.31617
H 15.4235 5.03602 3.30837
H 14.0876 5.25459 2.46761
O 13.0758 4.70162 5.67727
H 13.5354 5.01198 4.87067
H 12.1074 5.00352 5.5928
O 10.5008 1.02717 5.49231
H 10.066 1.26879 4.66471
H 11.3997 1.3957 5.60741
O 10.3369 5.48434 5.64315
H 9.855 5.17155 4.81546
H 10.2899 6.48042 5.64673
O 13.0865 1.74376 1.13726
H 12.1521 1.49248 1.21404
H 13.4692 1.47656 2.04328
O 13.0269 1.84581 5.78734
H 13.5386 1.49046 6.5847
H 13.166 2.80803 5.76694
O 9.08742 4.41372 7.80907
H 9.1125 3.45518 7.82502
H 9.45156 4.68033 6.89888
O 9.17267 4.55268 3.24592
H 8.26759 4.90571 3.26954
H 9.58383 4.84411 2.35654
O 10.3625 5.36607 1.02222
H 9.89916 4.99905 0.239992
H 11.283 5.14998 0.992964
O 10.3513 0.846334 1.08079
H 9.90016 1.18034 0.270082
H 13.8453 1.20206 4.3294
O 14.3099 0.841265 3.55466
H 14.0172 1.13839 8.75107
H 14.0749 5.30176 7.05788
O 14.3737 0.781211 7.90748
H 13.0545 2.83324 10.0714
H 12.1171 1.65138 10.1548
O 14.4674 5.61668 7.87736
H 15.4131 5.30867 7.93078
H 14.3326 7.32362 7.9177
O 9.14168 1.63854 7.85416
H 9.60876 1.38774 7.01641
H 9.92738 1.21364 9.28622
O 1.38641 9.13433 3.52865
H 1.87572 8.76318 4.32896
H 1.335 10.087 3.42546
O 5.29174 11.8952 1.14002
H 5.16412 10.8965 1.1888
H 4.36948 12.1859 0.986592
O 6.50674 12.7602 3.33552
H 7.43505 12.4311 3.35051
H 6.11039 12.4893 2.50878
O 5.2087 11.7736 5.68286
H 5.73269 12.1565 6.47172
H 5.68024 12.0879 4.86723
O 2.65254 8.22221 5.58702
H 3.56511 8.54462 5.6057
H 2.26465 8.49944 6.43654
O 2.59178 12.7939 5.68599
H 2.65325 13.7696 5.642
H 3.5062 12.4709 5.63456
O 5.19575 9.12309 1.1518
H 4.2564 8.7622 1.10565
H 5.62911 8.71702 0.340369
O 5.2439 9.10358 5.61924
H 5.77615 8.76065 4.8449
H 5.19207 10.0813 5.56806
O 1.2031 11.9075 7.86515
H 1.27515 10.9257 7.92078
H 1.6686 12.1946 7.06361
O 1.41331 11.9579 3.31471
H 0.457967 12.1982 3.45684
H 1.84796 12.3124 4.10078
O 2.58227 12.798 0.928714
H 2.6346 13.7717 1.05087
H 2.16507 12.5332 1.79603
O 2.60139 8.24284 1.14891
H 2.14564 8.56206 0.3597
H 2.20414 8.59596 1.96555
O 6.59548 8.24615 3.2516
H 7.53275 8.60497 3.24112
H 6.16732 8.58436 2.45915
O 6.3844 8.40299 7.8662
H 5.95089 8.58695 7.02072
H 7.30768 8.80875 7.90114
O 6.60365 12.8505 8.00518
H 6.14156 12.3851 8.74054
H 7.50739 12.5074 7.97271
O 1.35095 8.98979 7.83494
H 0.421592 8.70212 7.94046
H 1.80704 8.76891 8.67204
O 9.09563 9.20138 3.30025
H 9.63694 8.88522 2.53543
H 9.52105 8.90543 4.1222
O 13.1019 11.826 0.98714
H 13.0423 10.8204 0.901445
H 12.1714 12.0862 1.08365
O 14.5107 12.7046 3.33314
H 14.0001 12.336 4.09325
H 13.9924 12.4877 2.52854
O 13.0277 11.8533 5.53071
H 12.1271 12.2641 5.47045
H 13.3785 12.2767 6.33341
O 10.3663 8.30624 5.63108
H 11.2818 8.63312 5.51217
H 9.85241 8.66825 6.40932
O 10.5304 12.8807 5.56755
H 10.0082 12.6047 4.80195
H 10.4974 13.8597 5.58364
O 13.0298 9.03646 1.06819
H 13.3951 8.72156 0.195078
H 13.5453 8.6432 1.82667
O 13.0603 9.19856 5.62739
H 13.4476 8.84669 4.78421
H 12.9365 10.1562 5.51122
O 9.11444 11.8053 7.80274
H 9.51173 12.115 6.92462
H 9.61562 12.2188 8.54843
O 9.02351 11.8663 3.31672
H 9.07923 10.841 3.2847
H 9.48488 12.1889 2.53927
O 10.4774 12.6986 1.03128
H 9.99785 12.4074 0.214031
H 10.444 13.6736 1.07166
O 10.4103 8.16384 1.20855
H 10.4193 7.16655 0.998533
H 11.343 8.42407 1.07995
O 14.2417 8.18243 3.41759
H 14.3186 7.22559 3.45116
H 15.1466 8.54189 3.39349
O 14.261 8.30236 7.93506
H 13.7251 8.57872 7.14352
H 13.4686 8.8478 9.3833
O 14.2822 12.8382 7.92383
H 13.8562 12.5292 8.76312
H 15.1986 12.4557 8.04065
O 8.99927 9.05902 7.91633
H 9.02204 10.0273 7.97628
H 9.45974 8.84157 8.72966
O 1.29819 1.78448 12.4247
H 1.77829 1.38296 11.6305
H 0.366118 1.43635 12.306
O 5.25176 4.58852 10.1847
H 5.69289 4.94701 10.9833
H 5.7479 4.92827 9.42999
O 6.63825 5.61022 12.2775
H 6.15729 5.28888 13.0937
H 6.6185 6.57018 12.3437
O 5.19996 4.48637 14.6161
H 5.15446 3.51291 14.6197
H 4.27191 4.79436 14.6471
O 2.64525 0.813847 14.6797
H 2.22841 1.2854 15.4193
H 2.10691 1.10569 13.9
O 2.73926 5.38534 14.7578
H 2.56615 6.36333 14.7606
H 2.24758 5.05337 15.5617
O 5.25816 1.84177 10.2185
H 4.32425 1.51721 10.1986
H 5.24585 2.81854 10.1614
O 5.27872 1.68625 14.7189
H 5.77708 1.39217 15.5159
H 4.34943 1.37843 14.6182
O 1.40183 4.50976 16.9508
H 1.40128 3.53393 17.0061
H 1.8318 4.83891 17.7618
O 1.46915 4.5305 12.3715
H 1.31299 3.57685 12.3167
H 1.85371 4.87957 13.1866
O 2.61212 5.59532 10.0477
H 2.15828 5.14603 10.8079
H 3.51772 5.21299 9.97853
O 2.68342 0.93065 10.0797
H 2.24391 1.12909 9.21913
H 6.05537 1.21464 11.6057
O 6.62766 0.896495 12.3719
H 6.1435 1.11613 13.1755
H 8.21472 1.45228 12.4735
O 6.69556 0.770173 16.9588
H 6.15553 1.04056 17.7682
H 8.17827 1.28795 16.7103
O 6.53752 5.39175 16.9466
H 6.13416 5.06691 16.1236
H 7.48189 5.14622 16.9963
O 1.40876 1.76534 16.9357
H 0.473862 1.47728 16.884
H 1.77771 1.50056 17.8229
O 9.12735 1.81717 12.4299
H 9.17823 2.77621 12.4826
H 9.93789 1.35799 10.8041
O 13.0197 4.6341 9.99314
H 13.5685 4.85003 10.7787
H 13.5312 4.96203 9.21415
O 14.3789 5.4161 12.403
H 15.3089 5.0472 12.4187
H 13.9458 5.18208 13.248
O 13.0954 4.55519 14.6397
H 13.612 4.9976 15.3728
H 13.0702 3.56867 14.7405
O 10.5118 0.734331 14.636
H 10.0018 1.01294 13.8572
H 9.55603 1.41741 15.9969
O 10.4908 5.36101 14.6004
H 10.0698 5.10932 13.7356
H 11.3858 4.91384 14.6516
O 13.0754 1.86633 10.1277
H 13.849 1.33223 11.5993
H 13.8134 1.07975 13.1245
O 13.1973 1.72653 14.7074
H 13.6046 1.45735 15.5556
H 12.2743 1.32755 14.6586
O 9.15077 4.56908 16.9664
H 9.19699 3.57163 16.9207
H 9.64983 4.82028 16.1833
O 9.28098 4.52527 12.4025
H 8.36248 4.9787 12.3679
H 9.8054 4.78962 11.6212
O 10.4654 5.35373 10.1758
H 9.96459 5.00951 9.39413
H 11.4316 5.12987 10.0826
O 10.3748 0.871216 10.0789
H 10.4772 7.16683 10.21
H 11.3819 8.45777 10.1182
O 14.367 0.873055 12.3564
H 13.9412 1.08789 17.7032
H 15.4507 5.20259 16.9258
O 14.3702 0.815657 16.8667
H 14.541 6.49061 16.8335
H 13.7528 8.50277 16.0576
O 14.5349 5.51369 16.8603
H 15.1393 8.61286 16.8675
H 13.5087 8.91986 13.8319
O 9.04585 1.73873 16.7642
H 6.53455 7.16336 16.8131
H 10.5459 7.06673 14.5759
O 1.41006 9.05995 12.4487
H 1.85418 8.81447 11.5991
H 1.34706 10.0576 12.4152
O 5.23336 11.7352 10.0828
H 5.52282 12.0284 10.9564
H 4.32367 12.1294 10.0682
O 6.54038 12.7489 12.3313
H 6.03081 12.4841 13.117
H 6.51546 13.733 12.3144
O 5.25212 11.8641 14.6689
H 5.20644 10.8904 14.6047
H 4.27373 12.1669 14.6587
O 2.51802 8.05918 14.6195
H 2.06837 8.46003 13.8297
H 3.43262 8.4365 14.638
O 2.6677 12.7959 14.7084
H 2.57928 13.7641 14.6356
H 2.21908 12.5851 15.5501
O 5.40308 9.05447 10.2329
H 5.37299 10.0267 10.1972
H 5.96318 8.85518 9.4087
O 5.13708 9.04621 14.5623
H 5.67567 8.73838 15.3457
H 5.645 8.79199 13.7674
O 1.37507 12.0139 16.819
H 1.80112 12.3767 17.6291
H 0.449612 12.3307 16.9048
O 1.34878 11.9607 12.3515
H 0.4715 12.3039 12.5129
H 1.88047 12.2184 13.137
O 2.67463 12.88 10.0481
H 2.14328 12.4753 10.8424
H 2.17521 12.4976 9.30801
O 2.56633 8.16741 10.0812
H 2.63712 7.15661 10.0306
H 3.51907 8.40423 10.1229
O 6.51267 8.27695 12.4562
H 7.44754 8.58429 12.4496
H 6.02667 8.52323 11.6129
O 6.5045 8.13592 16.8411
H 7.45105 8.42998 16.8064
H 9.67357 8.81781 17.7465
O 6.60093 12.8024 16.989
H 6.11831 12.4912 16.1825
H 6.04909 12.5176 17.7262
O 1.25847 9.15351 16.9823
H 1.75002 8.77125 16.2062
H 1.35551 10.1175 16.8319
O 9.31108 9.18338 12.4199
H 9.78141 8.76618 11.6512
H 9.70739 8.80383 13.2192
O 13.0082 11.9241 10.2073
H 12.98 10.9293 10.234
H 12.0744 12.2399 10.2348
O 14.3414 12.9717 12.3733
H 13.885 12.5728 11.5982
H 14.2811 13.9736 12.3631
O 13.0016 12.0218 14.6372
H 13.3612 12.401 13.8126
H 12.1021 12.3964 14.6507
O 10.4735 8.04801 14.6738
H 11.3455 8.42663 14.577
H 9.63836 8.77545 16.1398
O 10.4184 12.8813 14.7512
H 9.96638 12.5364 13.9569
H 9.8549 12.6641 15.5292
O 12.9878 9.14989 10.2078
H 13.568 8.85643 10.9604
H 15.4007 8.48309 12.3854
O 13.052 9.23656 14.6757
H 13.0004 10.2083 14.5105
H 14.4413 7.241 12.4974
O 9.13465 11.8841 16.955
H 8.19828 12.2006 16.8445
H 9.05051 10.8946 16.8901
O 9.12958 11.9459 12.38
H 8.17114 12.15 12.413
H 9.17477 10.9461 12.4702
O 10.3958 12.7091 10.1426
H 10.3615 13.6983 10.2043
H 10.0088 12.4597 11.0184
O 10.4506 8.12334 10.2588
H 6.45169 14.5278 7.78206
H 10.4727 14.4645 14.6334
O 14.4686 8.19975 12.4361
H 13.8717 12.6082 16.0331
H 13.939 12.3361 17.6527
O 14.2537 8.23543 16.8653
H 14.3546 14.5373 16.8887
H 6.57523 14.4759 17.0163
O 14.423 12.8209 16.8556
H 14.3034 14.5095 7.99817
H 14.3017 14.541 3.64662
O 9.2076 9.16648 16.9155
H 2.73896 14.6796 10.1231
H 6.47845 14.4457 3.41121
384
 Atoms. Timestep: 110
O 1.33101 1.64169 3.40305
H 1.36596 2.62772 3.37475
H 0.376663 1.36875 3.51535
O 5.30647 4.54934 1.25763
H 5.81838 4.99162 2.00413
H 5.67205 4.87002 0.405644
O 6.55967 5.63191 3.30242
H 6.2045 5.25625 4.11936