ITEM: TIMESTEP
80
ITEM: NUMBER OF ATOMS
384
ITEM: BOX BOUNDS xy xz yz pp pp pp
0.0000000000000000e+00 1.5645677531129000e+01 0.0000000000000000e+00
0.0000000000000000e+00 1.4707145294364000e+01 0.0000000000000000e+00
0.0000000000000000e+00 1.8073037030847999e+01 0.0000000000000000e+00
ITEM: ATOMS id type mass x y z
1 1 15.9994 1.32908 1.77247 3.35
2 2 1.008 1.26402 2.75172 3.24806
3 2 1.008 0.400575 1.43191 3.29965
4 1 15.9994 5.29062 4.57835 1.14209
5 2 1.008 5.74772 4.95794 1.93035
6 2 1.008 5.79145 4.8782 0.351519
7 1 15.9994 6.52112 5.52573 3.36639
8 2 1.008 6.0641 5.29309 4.20304
9 2 1.008 6.47486 6.50883 3.29652
10 1 15.9994 5.25039 4.55138 5.65292
11 2 1.008 4.33376 4.93922 5.66878
12 2 1.008 5.74763 4.86335 6.43754
13 1 15.9994 2.60337 0.884494 5.56802
14 2 1.008 2.21905 1.15778 4.70173
15 2 1.008 3.54073 1.21842 5.57059
16 1 15.9994 2.62387 5.47392 5.62207
17 2 1.008 2.5721 6.46066 5.64227
18 2 1.008 2.15264 5.18896 6.44098
19 1 15.9994 5.25655 1.79722 1.13837
20 2 1.008 5.24591 2.78496 1.15295
21 2 1.008 5.65982 1.49219 1.98187
22 1 15.9994 5.24936 1.78267 5.62813
23 2 1.008 5.70382 1.48444 6.44878
24 2 1.008 5.25589 2.76448 5.63521
25 1 15.9994 1.37279 4.5484 7.90661
26 2 1.008 1.36487 3.56247 7.8929
27 2 1.008 1.74557 4.86642 8.76405
28 1 15.9994 1.34589 4.512 3.35884
29 2 1.008 1.84585 4.82018 2.57756
30 2 1.008 1.71434 4.91166 4.18649
31 1 15.9994 2.64753 5.4237 1.14245
32 2 1.008 2.58673 6.41014 1.10786
33 2 1.008 3.61383 5.25942 0.971434
34 1 15.9994 2.64278 0.881141 1.09341
35 2 1.008 2.16579 1.20035 1.89287
36 2 1.008 3.54749 1.29637 1.08254
37 1 15.9994 6.55106 0.83262 3.39313
38 2 1.008 6.1365 1.11685 4.23978
39 2 1.008 8.18619 1.53272 3.34135
40 1 15.9994 6.49887 0.826161 7.87152
41 2 1.008 6.00945 1.21569 8.63637
42 2 1.008 8.2329 1.33192 7.90033
43 1 15.9994 6.55831 5.52033 7.90073
44 2 1.008 7.48405 5.19743 7.84754
45 2 1.008 6.5945 6.50297 7.97976
46 1 15.9994 1.30258 1.72282 7.842
47 2 1.008 1.71518 1.45403 6.99291
48 2 1.008 0.390506 1.36658 7.93305
49 1 15.9994 9.15223 1.80994 3.30623
50 2 1.008 9.05793 2.79188 3.28461
51 2 1.008 9.92078 1.14982 1.89713
52 1 15.9994 13.0635 4.5316 1.05441
53 2 1.008 13.0945 3.55114 1.1006
54 2 1.008 13.4884 4.84569 0.21759
55 1 15.9994 14.3924 5.44452 3.33071
56 2 1.008 15.3241 5.07386 3.31907
57 2 1.008 13.9319 5.0364 2.5561
58 1 15.9994 13.0692 4.57318 5.60901
59 2 1.008 13.4104 4.88928 4.7399
60 2 1.008 12.1156 4.86455 5.66704
61 1 15.9994 10.4644 0.91211 5.55169
62 2 1.008 9.98828 1.27439 4.77289
63 2 1.008 11.4037 1.19776 5.5829
64 1 15.9994 10.4213 5.45554 5.60192
65 2 1.008 9.99563 5.21581 4.72669
66 2 1.008 10.4341 6.44199 5.64707
67 1 15.9994 13.0799 1.75511 1.11043
68 2 1.008 12.1713 1.35908 1.10198
69 2 1.008 13.5227 1.31849 1.89218
70 1 15.9994 13.0658 1.79211 5.65246
71 2 1.008 13.5001 1.41674 6.46121
72 2 1.008 13.096 2.76298 5.78483
73 1 15.9994 9.14138 4.49228 7.83315
74 2 1.008 9.06085 3.51767 7.75968
75 2 1.008 9.70654 4.73581 7.03848
76 1 15.9994 9.1307 4.57363 3.31692
77 2 1.008 8.23107 4.94868 3.22631
78 2 1.008 9.64781 4.84845 2.50618
79 1 15.9994 10.4216 5.40751 1.04539
80 2 1.008 10.0522 5.08751 0.194361
81 2 1.008 11.3425 5.08173 1.11784
82 1 15.9994 10.4287 0.882813 1.09318
83 2 1.008 10.0301 1.22275 0.259548
84 2 1.008 13.8818 1.11945 4.22457
85 1 15.9994 14.3557 0.840261 3.41399
86 2 1.008 13.8325 1.14096 8.67782
87 2 1.008 13.9184 5.1756 7.06868
88 1 15.9994 14.3643 0.844403 7.90239
89 2 1.008 13.028 2.81235 10.1032
90 2 1.008 12.1022 1.60845 10.0619
91 1 15.9994 14.4033 5.48231 7.8637
92 2 1.008 15.3236 5.12707 7.80969
93 2 1.008 14.2129 7.24579 7.82628
94 1 15.9994 9.14086 1.7224 7.85827
95 2 1.008 9.55109 1.43825 7.00723
96 2 1.008 9.94072 1.12794 9.30251
97 1 15.9994 1.35064 9.13095 3.40572
98 2 1.008 1.79156 8.71682 4.18529
99 2 1.008 1.36665 10.108 3.35635
100 1 15.9994 5.24253 11.8789 1.11787
101 2 1.008 5.13519 10.899 0.999993
102 2 1.008 4.30051 12.1562 1.20044
103 1 15.9994 6.55746 12.8003 3.33986
104 2 1.008 7.48199 12.4653 3.29907
105 2 1.008 6.04576 12.3893 2.6079
106 1 15.9994 5.24345 11.8916 5.62686
107 2 1.008 5.7506 12.1619 6.43967
108 2 1.008 5.71196 12.3172 4.8671
109 1 15.9994 2.63705 8.23402 5.61394
110 2 1.008 3.57752 8.51352 5.68504
111 2 1.008 2.21817 8.58405 6.42964
112 1 15.9994 2.62858 12.8018 5.6338
113 2 1.008 2.64903 13.7853 5.6301
114 2 1.008 3.56835 12.5262 5.75447
115 1 15.9994 5.21837 9.11147 1.10133
116 2 1.008 4.28631 8.77923 1.06425
117 2 1.008 5.61034 8.77837 0.254282
118 1 15.9994 5.24079 9.15125 5.62531
119 2 1.008 5.68064 8.90944 4.76973
120 2 1.008 5.20882 10.1332 5.67717
121 1 15.9994 1.29954 11.8755 7.87894
122 2 1.008 1.34145 10.8964 7.79527
123 2 1.008 1.74208 12.2637 7.09252
124 1 15.9994 1.34441 11.9066 3.36512
125 2 1.008 0.431547 12.287 3.37527
126 2 1.008 1.75293 12.2884 4.17415
127 1 15.9994 2.61584 12.8096 1.07208
128 2 1.008 2.55364 13.7882 1.15658
129 2 1.008 2.1262 12.5187 1.88349
130 1 15.9994 2.608 8.21249 1.08842
131 2 1.008 2.10731 8.56498 0.327586
132 2 1.008 2.19334 8.45173 1.95024
133 1 15.9994 6.54746 8.2608 3.34144
134 2 1.008 7.46788 8.62063 3.29569
135 2 1.008 6.10466 8.59741 2.53367
136 1 15.9994 6.52926 8.28394 7.86868
137 2 1.008 6.08329 8.64855 7.0776
138 2 1.008 7.50876 8.44819 7.76371
139 1 15.9994 6.58095 12.7875 7.92057
140 2 1.008 6.12969 12.5593 8.76286
141 2 1.008 7.50511 12.4619 7.97929
142 1 15.9994 1.32328 9.09141 7.88553
143 2 1.008 0.410916 8.73483 7.8851
144 2 1.008 1.76445 8.70752 8.67848
145 1 15.9994 9.14399 9.1251 3.34698
146 2 1.008 9.57187 8.70524 2.56157
147 2 1.008 9.58804 8.8332 4.16991
148 1 15.9994 13.0497 11.8441 1.08574
149 2 1.008 13.0503 10.8655 1.27794
150 2 1.008 12.0941 12.0648 1.04312
151 1 15.9994 14.3922 12.7595 3.36944
152 2 1.008 13.8755 12.4403 4.13983
153 2 1.008 13.9262 12.4058 2.58024
154 1 15.9994 13.0372 11.887 5.61716
155 2 1.008 12.1196 12.2499 5.70492
156 2 1.008 13.4681 12.2258 6.43081
157 1 15.9994 10.4385 8.23816 5.64321
158 2 1.008 11.39 8.47954 5.57944
159 2 1.008 9.97974 8.52025 6.47554
160 1 15.9994 10.4548 12.8379 5.60682
161 2 1.008 10.0473 12.5712 4.75033
162 2 1.008 10.4573 13.8206 5.60584
163 1 15.9994 13.0398 9.06957 1.09133
164 2 1.008 13.5361 8.8332 0.267832
165 2 1.008 13.5118 8.69866 1.87296
166 1 15.9994 13.0547 9.1477 5.605
167 2 1.008 13.5216 8.89962 4.77274
168 2 1.008 13.1628 10.1192 5.72308
169 1 15.9994 9.17949 11.8975 7.88329
170 2 1.008 9.67295 12.198 7.07287
171 2 1.008 9.67395 12.1802 8.68617
172 1 15.9994 9.13621 11.8682 3.33671
173 2 1.008 9.15962 10.8637 3.33719
174 2 1.008 9.59712 12.1587 2.51802
175 1 15.9994 10.4533 12.7896 1.06694
176 2 1.008 9.9655 12.4344 0.285254
177 2 1.008 10.464 13.7703 1.0047
178 1 15.9994 10.4466 8.17897 1.12466
179 2 1.008 10.4957 7.18334 1.21609
180 2 1.008 11.3803 8.48202 1.19067
181 1 15.9994 14.3469 8.1969 3.36549
182 2 1.008 14.3829 7.20803 3.36276
183 2 1.008 15.2535 8.55974 3.45731
184 1 15.9994 14.3155 8.22026 7.90054
185 2 1.008 14.0256 8.57536 7.02088
186 2 1.008 13.5865 8.82523 9.39027
187 1 15.9994 14.3374 12.8129 7.92833
188 2 1.008 13.9643 12.3398 8.71543
189 2 1.008 15.2388 12.4081 7.87319
190 1 15.9994 9.12292 9.14124 7.90669
191 2 1.008 9.18773 10.1158 8.05969
192 2 1.008 9.55469 8.81482 8.73226
193 1 15.9994 1.3346 1.74567 12.3994
194 2 1.008 1.72615 1.45181 11.5331
195 2 1.008 0.389239 1.46016 12.3181
196 1 15.9994 5.26911 4.54829 10.1519
197 2 1.008 5.69855 4.87213 10.9769
198 2 1.008 5.77705 4.90305 9.3846
199 1 15.9994 6.55751 5.50204 12.3834
200 2 1.008 6.12082 5.22145 13.2261
201 2 1.008 6.5737 6.48341 12.3868
202 1 15.9994 5.22592 4.51027 14.6479
203 2 1.008 5.11833 3.53206 14.6303
204 2 1.008 4.31699 4.8615 14.7683
205 1 15.9994 2.64232 0.862 14.6583
206 2 1.008 2.15574 1.13631 15.4841
207 2 1.008 2.10317 1.3022 13.9581
208 1 15.9994 2.65487 5.42686 14.716
209 2 1.008 2.56813 6.40966 14.7179
210 2 1.008 2.09966 5.13646 15.4822
211 1 15.9994 5.23928 1.78149 10.1636
212 2 1.008 4.28664 1.52632 10.1456
213 2 1.008 5.29237 2.76276 10.1399
214 1 15.9994 5.24704 1.74448 14.6822
215 2 1.008 5.783 1.43654 15.4455
216 2 1.008 4.31781 1.42695 14.6235
217 1 15.9994 1.34628 4.51782 16.951
218 2 1.008 1.34026 3.53824 17.0072
219 2 1.008 1.84138 4.86368 17.7331
220 1 15.9994 1.37994 4.50271 12.4184
221 2 1.008 1.3622 3.52548 12.3316
222 2 1.008 1.92406 4.9457 13.1194
223 1 15.9994 2.63752 5.44986 10.1228
224 2 1.008 2.19873 5.18632 10.9632
225 2 1.008 3.60859 5.27405 10.1523
226 1 15.9994 2.64384 0.859726 10.1029
227 2 1.008 2.15546 1.17798 9.30991
228 2 1.008 6.09006 1.30147 11.6287
229 1 15.9994 6.56454 0.884252 12.3919
230 2 1.008 6.1272 1.21294 13.2131
231 2 1.008 8.24269 1.38775 12.3711
232 1 15.9994 6.58112 0.828749 16.9172
233 2 1.008 6.29943 1.20624 17.7934
234 2 1.008 8.22075 1.37843 16.8573
235 1 15.9994 6.58501 5.43812 16.9077
236 2 1.008 6.08414 5.01122 16.1716
237 2 1.008 7.52148 5.13964 16.9299
238 1 15.9994 1.33783 1.76162 16.9235
239 2 1.008 0.415665 1.4247 16.8329
240 2 1.008 1.77003 1.30023 17.6851
241 1 15.9994 9.13333 1.81343 12.4081
242 2 1.008 9.12461 2.79356 12.4246
243 2 1.008 9.84925 1.21065 10.8605
244 1 15.9994 13.056 4.59037 10.093
245 2 1.008 13.513 4.95626 10.8851
246 2 1.008 13.5376 4.95383 9.30281
247 1 15.9994 14.4065 5.42675 12.4018
248 2 1.008 15.3473 5.12522 12.4485
249 2 1.008 13.9129 5.00339 13.1517
250 1 15.9994 13.095 4.51463 14.6486
251 2 1.008 13.4823 4.87072 15.4887
252 2 1.008 13.1514 3.53123 14.6196
253 1 15.9994 10.4826 0.804755 14.6288
254 2 1.008 10.0714 1.16277 13.8087
255 2 1.008 9.54667 1.32402 16.0646
256 1 15.9994 10.5001 5.43046 14.6222
257 2 1.008 10.0075 5.11244 13.8289
258 2 1.008 11.4398 5.13371 14.5146
259 1 15.9994 13.0614 1.82515 10.1418
260 2 1.008 13.7575 1.29552 11.6886
261 2 1.008 13.9769 1.28621 13.1776
262 1 15.9994 13.1066 1.73641 14.6849
263 2 1.008 13.5608 1.32794 15.4638
264 2 1.008 12.1557 1.45072 14.7054
265 1 15.9994 9.18483 4.52583 16.9005
266 2 1.008 9.10567 3.55223 16.7256
267 2 1.008 9.59524 4.86988 16.0638
268 1 15.9994 9.18709 4.56201 12.3929
269 2 1.008 8.22837 4.85123 12.3704
270 2 1.008 9.64372 4.78708 11.5457
271 1 15.9994 10.4411 5.42194 10.124
272 2 1.008 10.0835 5.08866 9.26778
273 2 1.008 11.377 5.1178 10.209
274 1 15.9994 10.4337 0.904839 10.1285
275 2 1.008 10.4376 7.20434 10.1842
276 2 1.008 11.3979 8.45878 10.1792
277 1 15.9994 14.3675 0.881703 12.3674
278 2 1.008 13.8999 1.12864 17.7256
279 2 1.008 15.3688 5.17865 16.8635
280 1 15.9994 14.3736 0.817063 16.9203
281 2 1.008 14.4139 6.4473 16.9649
282 2 1.008 13.8147 8.57735 16.1267
283 1 15.9994 14.4202 5.47056 16.896
284 2 1.008 15.2631 8.56415 16.9094
285 2 1.008 13.6738 8.87418 13.9065
286 1 15.9994 9.13452 1.74752 16.8579
287 2 1.008 6.53663 7.21297 16.9161
288 2 1.008 10.525 7.19558 14.7133
289 1 15.9994 1.36255 9.11678 12.3942
290 2 1.008 1.87402 8.8527 11.5951
291 2 1.008 1.30115 10.1022 12.3107
292 1 15.9994 5.24859 11.8494 10.1336
293 2 1.008 5.57982 12.2732 10.9705
294 2 1.008 4.30336 12.1245 10.1883
295 1 15.9994 6.52366 12.7968 12.4048
296 2 1.008 6.10085 12.583 13.2758
297 2 1.008 6.52487 13.7796 12.3408
298 1 15.9994 5.21362 11.8884 14.6578
299 2 1.008 5.20469 10.9102 14.6846
300 2 1.008 4.26029 12.1792 14.7406
301 1 15.9994 2.59098 8.18253 14.6414
302 2 1.008 2.16231 8.56481 13.8394
303 2 1.008 3.53357 8.47205 14.6199
304 1 15.9994 2.62587 12.815 14.6814
305 2 1.008 2.61269 13.7951 14.7823
306 2 1.008 2.03778 12.4966 15.4039
307 1 15.9994 5.29132 9.11179 10.1535
308 2 1.008 5.31004 10.095 10.0503
309 2 1.008 5.63313 8.80898 9.25611
310 1 15.9994 5.21081 9.11524 14.6389
311 2 1.008 5.69076 8.72686 15.4112
312 2 1.008 5.65819 8.77175 13.832
313 1 15.9994 1.34545 11.9471 16.9081
314 2 1.008 1.71854 12.3164 17.7418
315 2 1.008 0.405949 12.2412 16.9392
316 1 15.9994 1.33002 11.908 12.3944
317 2 1.008 0.469316 12.3969 12.4004
318 2 1.008 1.84958 12.2369 13.1611
319 1 15.9994 2.65199 12.8024 10.1173
320 2 1.008 2.06869 12.5182 10.8877
321 2 1.008 2.09028 12.5565 9.33712
322 1 15.9994 2.63061 8.17944 10.1161
323 2 1.008 2.62562 7.17974 10.1364
324 2 1.008 3.59184 8.39979 10.1192
325 1 15.9994 6.52428 8.23832 12.4129
326 2 1.008 7.42946 8.61273 12.4341
327 2 1.008 6.01773 8.52485 11.5994
328 1 15.9994 6.55071 8.19687 16.8877
329 2 1.008 7.4988 8.45973 16.927
330 2 1.008 9.57927 8.79223 17.7563
331 1 15.9994 6.53447 12.7977 16.9329
332 2 1.008 6.04009 12.4434 16.1559
333 2 1.008 6.08664 12.4259 17.7194
334 1 15.9994 1.30453 9.15126 16.9155
335 2 1.008 1.76436 8.86736 16.0909
336 2 1.008 1.4091 10.131 16.8911
337 1 15.9994 9.18902 9.12675 12.4054
338 2 1.008 9.73372 8.72657 11.6875
339 2 1.008 9.53554 8.78814 13.2576
340 1 15.9994 13.0408 11.8733 10.1802
341 2 1.008 13.0019 10.8934 10.2251
342 2 1.008 12.1191 12.2133 10.185
343 1 15.9994 14.3678 12.8701 12.3886
344 2 1.008 13.9311 12.4508 11.6091
345 2 1.008 14.3683 13.8573 12.3083
346 1 15.9994 13.0468 11.9432 14.6426
347 2 1.008 13.4084 12.3588 13.8258
348 2 1.008 12.0935 12.1913 14.5528
349 1 15.9994 10.4705 8.17683 14.6745
350 2 1.008 11.3855 8.53161 14.6518
351 2 1.008 9.68236 8.79169 16.154
352 1 15.9994 10.4288 12.8165 14.6635
353 2 1.008 9.97855 12.4823 13.8528
354 2 1.008 9.97753 12.3875 15.4239
355 1 15.9994 13.0388 9.11019 10.1656
356 2 1.008 13.4784 8.69905 10.9487
357 2 1.008 15.3544 8.49336 12.3554
358 1 15.9994 13.0558 9.15976 14.6343
359 2 1.008 13.2088 10.1359 14.7122
360 2 1.008 14.3932 7.21694 12.3872
361 1 15.9994 9.11991 11.9022 16.907
362 2 1.008 8.16576 12.1133 17.0721
363 2 1.008 9.14018 10.9172 16.9645
364 1 15.9994 9.11955 11.887 12.3941
365 2 1.008 8.18765 12.2135 12.3679
366 2 1.008 9.02777 10.9028 12.3304
367 1 15.9994 10.4672 12.8165 10.1776
368 2 1.008 10.4004 13.7963 10.266
369 2 1.008 9.87417 12.4927 10.8965
370 1 15.9994 10.4485 8.18599 10.1927
371 2 1.008 6.55627 14.5515 7.93804
372 2 1.008 10.4187 14.5337 14.5531
373 1 15.9994 14.4172 8.20003 12.3969
374 2 1.008 13.8361 12.3579 16.189
375 2 1.008 13.885 12.539 17.7836
376 1 15.9994 14.3418 8.23694 16.8871
377 2 1.008 14.3506 14.5422 16.9468
378 2 1.008 6.56446 14.5609 17.13
379 1 15.9994 14.3633 12.7728 16.9194
380 2 1.008 14.3394 14.5698 7.94988
381 2 1.008 14.3289 14.555 3.37612
382 1 15.9994 9.16839 9.13874 16.9216
383 2 1.008 2.65008 14.5868 10.0814
384 2 1.008 6.57837 14.5593 3.44623
ITEM: TIMESTEP
90
ITEM: NUMBER OF ATOMS
384
ITEM: BOX BOUNDS xy xz yz pp pp pp
0.0000000000000000e+00 1.5645677531129000e+01 0.0000000000000000e+00
0.0000000000000000e+00 1.4707145294364000e+01 0.0000000000000000e+00
0.0000000000000000e+00 1.8073037030847999e+01 0.0000000000000000e+00
ITEM: ATOMS id type mass x y z
1 1 15.9994 1.34302 1.72275 3.38522
2 2 1.008 1.31877 2.70177 3.30332
3 2 1.008 0.402259 1.38915 3.36908
4 1 15.9994 5.31304 4.57737 1.2008
5 2 1.008 5.72881 4.94742 2.02447
6 2 1.008 5.85437 4.83559 0.431885
7 1 15.9994 6.52339 5.55771 3.32981
8 2 1.008 6.10286 5.34956 4.18194
9 2 1.008 6.53342 6.54028 3.23445
10 1 15.9994 5.29398 4.55603 5.67216
11 2 1.008 4.38055 4.97822 5.75234
12 2 1.008 5.76199 4.9275 6.44953
13 1 15.9994 2.57021 0.909558 5.55108
14 2 1.008 2.18862 1.18223 4.68857
15 2 1.008 3.5157 1.23605 5.58089
16 1 15.9994 2.63105 5.49434 5.60966
17 2 1.008 2.57947 6.48536 5.59922
18 2 1.008 2.22163 5.18947 6.42927
19 1 15.9994 5.22943 1.78446 1.19433
20 2 1.008 5.21919 2.758 1.25258
21 2 1.008 5.56054 1.4845 2.07295
22 1 15.9994 5.25741 1.78135 5.63983
23 2 1.008 5.69266 1.48743 6.45471
24 2 1.008 5.25456 2.76035 5.63622
25 1 15.9994 1.4298 4.59939 7.91849
26 2 1.008 1.412 3.60843 7.9473
27 2 1.008 1.81609 4.85926 8.79759
28 1 15.9994 1.36172 4.43379 3.36033
29 2 1.008 1.93781 4.77585 2.65307
30 2 1.008 1.77153 4.83739 4.18447
31 1 15.9994 2.62705 5.39842 1.18918
32 2 1.008 2.43745 6.36991 1.15322
33 2 1.008 3.58794 5.24396 0.991322
34 1 15.9994 2.61041 0.884875 1.08103
35 2 1.008 2.17656 1.22754 1.89788
36 2 1.008 3.52764 1.30039 1.06826
37 1 15.9994 6.56973 0.765304 3.43969
38 2 1.008 6.18002 1.0815 4.28472
39 2 1.008 8.22743 1.42339 3.32902
40 1 15.9994 6.45556 0.820014 7.83769
41 2 1.008 5.96026 1.12049 8.64081
42 2 1.008 8.2283 1.29675 7.88547
43 1 15.9994 6.55745 5.59775 7.93467
44 2 1.008 7.49104 5.31186 7.85606
45 2 1.008 6.54546 6.58184 7.98706
46 1 15.9994 1.27878 1.67225 7.82743
47 2 1.008 1.58791 1.39391 6.94048
48 2 1.008 0.365121 1.30403 7.88449
49 1 15.9994 9.16115 1.8083 3.25584
50 2 1.008 9.14395 2.78917 3.21096
51 2 1.008 9.81752 1.1604 1.85363
52 1 15.9994 13.059 4.56641 1.03017
53 2 1.008 13.0909 3.594 1.0448
54 2 1.008 13.5435 4.79326 0.181806
55 1 15.9994 14.4549 5.45219 3.32445
56 2 1.008 15.37 5.03242 3.33379
57 2 1.008 13.9921 5.07336 2.54821
58 1 15.9994 13.0764 4.64263 5.63616
59 2 1.008 13.3865 4.94079 4.7552
60 2 1.008 12.0995 4.88273 5.69915
61 1 15.9994 10.4845 0.968918 5.52339
62 2 1.008 10.0901 1.33748 4.71026
63 2 1.008 11.4069 1.31326 5.47922
64 1 15.9994 10.3775 5.46812 5.62469
65 2 1.008 9.93886 5.242 4.74514
66 2 1.008 10.3705 6.45627 5.69016
67 1 15.9994 13.0839 1.75116 1.1288
68 2 1.008 12.1702 1.39933 1.09987
69 2 1.008 13.5671 1.35317 1.92346
70 1 15.9994 13.0411 1.82313 5.72278
71 2 1.008 13.5044 1.36272 6.48058
72 2 1.008 13.1109 2.78534 5.85659
73 1 15.9994 9.1164 4.44764 7.8118
74 2 1.008 8.96808 3.4965 7.79183
75 2 1.008 9.64046 4.73052 6.99336
76 1 15.9994 9.14861 4.56119 3.28267
77 2 1.008 8.26962 4.96308 3.16091
78 2 1.008 9.65352 4.77786 2.43007
79 1 15.9994 10.3766 5.38668 1.02461
80 2 1.008 10.0757 5.02554 0.164406
81 2 1.008 11.2913 5.08994 1.07977
82 1 15.9994 10.3876 0.862571 1.09495
83 2 1.008 9.90923 1.27399 0.333692
84 2 1.008 13.8457 1.14942 4.27845
85 1 15.9994 14.3348 0.840948 3.49487
86 2 1.008 13.8666 1.16561 8.67136
87 2 1.008 13.9845 5.2527 7.07238
88 1 15.9994 14.3771 0.815768 7.90558
89 2 1.008 13.1679 2.81688 10.0582
90 2 1.008 12.1306 1.57482 10.0673
91 1 15.9994 14.4397 5.55332 7.87396
92 2 1.008 15.362 5.19895 7.7865
93 2 1.008 14.1787 7.28293 7.86275
94 1 15.9994 9.14878 1.68587 7.86046
95 2 1.008 9.52184 1.42909 6.98075
96 2 1.008 9.96296 1.05146 9.24066
97 1 15.9994 1.36461 9.12667 3.4685
98 2 1.008 1.87425 8.8784 4.29867
99 2 1.008 1.50788 10.0864 3.54543
100 1 15.9994 5.26666 11.8864 1.1359
101 2 1.008 5.22429 10.9019 0.986797
102 2 1.008 4.37007 12.2774 1.18643
103 1 15.9994 6.53057 12.7897 3.3323
104 2 1.008 7.4412 12.4223 3.28336
105 2 1.008 6.06023 12.3488 2.61063
106 1 15.9994 5.22042 11.8263 5.64913
107 2 1.008 5.72411 12.0963 6.48473
108 2 1.008 5.68028 12.2677 4.88716
109 1 15.9994 2.64693 8.23259 5.59603
110 2 1.008 3.59195 8.45211 5.60667
111 2 1.008 2.21648 8.57143 6.40578
112 1 15.9994 2.61044 12.7932 5.65701
113 2 1.008 2.62875 13.7769 5.65896
114 2 1.008 3.52451 12.4833 5.82063
115 1 15.9994 5.20503 9.11563 1.13621
116 2 1.008 4.25726 8.80891 1.15338
117 2 1.008 5.64292 8.78963 0.301126
118 1 15.9994 5.24465 9.12424 5.63317
119 2 1.008 5.70492 8.93574 4.76401
120 2 1.008 5.16387 10.106 5.62652
121 1 15.9994 1.24704 11.8907 7.87738
122 2 1.008 1.37747 10.9145 7.77796
123 2 1.008 1.66497 12.2737 7.08102
124 1 15.9994 1.37015 11.9365 3.34856
125 2 1.008 0.43464 12.269 3.33454
126 2 1.008 1.83405 12.2908 4.11802
127 1 15.9994 2.58976 12.8056 0.998619
128 2 1.008 2.61919 13.7836 1.03443
129 2 1.008 2.16034 12.4241 1.80937
130 1 15.9994 2.62091 8.22575 1.1081
131 2 1.008 2.03132 8.61856 0.442162
132 2 1.008 2.1843 8.49478 1.94336
133 1 15.9994 6.58034 8.25175 3.29179
134 2 1.008 7.50235 8.6285 3.31334
135 2 1.008 6.11051 8.59759 2.51725
136 1 15.9994 6.45256 8.35825 7.87121
137 2 1.008 6.04497 8.65719 7.03403
138 2 1.008 7.43809 8.50931 7.72492
139 1 15.9994 6.59592 12.8196 7.96575
140 2 1.008 6.13969 12.591 8.80749
141 2 1.008 7.49574 12.4611 8.02424
142 1 15.9994 1.33966 9.04103 7.86125
143 2 1.008 0.434172 8.674 7.87729
144 2 1.008 1.79513 8.70782 8.66563
145 1 15.9994 9.11447 9.16994 3.32113
146 2 1.008 9.59662 8.70825 2.58396
147 2 1.008 9.56529 8.85225 4.12365
148 1 15.9994 13.0619 11.8296 1.02842
149 2 1.008 13.1813 10.863 1.25415
150 2 1.008 12.1202 12.0673 1.01874
151 1 15.9994 14.4606 12.7279 3.35366
152 2 1.008 13.9242 12.4236 4.1172
153 2 1.008 13.9881 12.4245 2.54845
154 1 15.9994 13.0232 11.8666 5.57366
155 2 1.008 12.0792 12.1705 5.59579
156 2 1.008 13.494 12.2297 6.34592
157 1 15.9994 10.3951 8.26654 5.6248
158 2 1.008 11.3347 8.58147 5.67843
159 2 1.008 10.0934 8.64182 6.50561
160 1 15.9994 10.4935 12.8602 5.58655
161 2 1.008 10.0927 12.6398 4.72813
162 2 1.008 10.4762 13.8353 5.65274
163 1 15.9994 13.0264 9.05171 1.07833
164 2 1.008 13.5149 8.81021 0.2419
165 2 1.008 13.5541 8.60999 1.79071
166 1 15.9994 13.0578 9.17498 5.60795
167 2 1.008 13.4758 8.9684 4.73591
168 2 1.008 13.1031 10.1408 5.72441
169 1 15.9994 9.13792 11.8555 7.83789
170 2 1.008 9.66041 12.1309 7.01982
171 2 1.008 9.68972 12.1861 8.59172
172 1 15.9994 9.07127 11.864 3.33082
173 2 1.008 9.12236 10.8452 3.32285
174 2 1.008 9.51591 12.1479 2.51437
175 1 15.9994 10.4601 12.7408 1.05442
176 2 1.008 9.99108 12.4093 0.243692
177 2 1.008 10.4632 13.7107 0.917698
178 1 15.9994 10.4356 8.17195 1.16078
179 2 1.008 10.459 7.16181 1.20851
180 2 1.008 11.35 8.5217 1.17773
181 1 15.9994 14.2896 8.1896 3.3907
182 2 1.008 14.4211 7.22397 3.3982
183 2 1.008 15.2016 8.52433 3.47494
184 1 15.9994 14.2826 8.25572 7.91957
185 2 1.008 14.0383 8.61343 7.03228
186 2 1.008 13.5803 8.91017 9.39292
187 1 15.9994 14.3103 12.8281 7.93932
188 2 1.008 13.8789 12.4037 8.72449
189 2 1.008 15.2178 12.4699 7.77982
190 1 15.9994 9.06195 9.11248 7.91287
191 2 1.008 9.04392 10.0811 7.98496
192 2 1.008 9.45161 8.6779 8.68074
193 1 15.9994 1.31238 1.7541 12.414
194 2 1.008 1.79568 1.45576 11.589
195 2 1.008 0.353616 1.49636 12.3463
196 1 15.9994 5.26528 4.56782 10.1707
197 2 1.008 5.70583 4.88329 10.9889
198 2 1.008 5.82538 4.91377 9.45328
199 1 15.9994 6.59525 5.56241 12.3257
200 2 1.008 6.18432 5.30788 13.1945
201 2 1.008 6.66972 6.52925 12.3356
202 1 15.9994 5.2032 4.49183 14.6269
203 2 1.008 5.08614 3.52773 14.6056
204 2 1.008 4.32724 4.89835 14.7883
205 1 15.9994 2.63248 0.837121 14.6649
206 2 1.008 2.29962 1.09925 15.5421
207 2 1.008 2.12109 1.28427 13.9466
208 1 15.9994 2.70329 5.40533 14.7529
209 2 1.008 2.5715 6.38409 14.7158
210 2 1.008 2.10292 4.99995 15.4263
211 1 15.9994 5.25091 1.8106 10.1921
212 2 1.008 4.28873 1.59614 10.1952
213 2 1.008 5.28708 2.78775 10.1465
214 1 15.9994 5.26583 1.73349 14.6926
215 2 1.008 5.65726 1.32008 15.5071
216 2 1.008 4.38227 1.28839 14.7658
217 1 15.9994 1.37782 4.51578 16.9461
218 2 1.008 1.38084 3.54635 17.0777
219 2 1.008 1.85028 4.86837 17.7256
220 1 15.9994 1.39975 4.5274 12.3875
221 2 1.008 1.51633 3.55556 12.4767
222 2 1.008 2.04411 4.72534 13.0988
223 1 15.9994 2.61941 5.53183 10.0706
224 2 1.008 2.25576 5.20645 10.932
225 2 1.008 3.57488 5.2884 10.1376
226 1 15.9994 2.66146 0.890445 10.0946
227 2 1.008 2.20438 1.14959 9.2595
228 2 1.008 6.08423 1.33802 11.648
229 1 15.9994 6.59592 0.888563 12.3777
230 2 1.008 6.19162 1.19921 13.2078
231 2 1.008 8.19603 1.48798 12.4272
232 1 15.9994 6.64209 0.788769 16.9355
233 2 1.008 6.42884 1.32444 17.7448
234 2 1.008 8.1827 1.35105 16.8692
235 1 15.9994 6.56098 5.42445 16.9289
236 2 1.008 6.19059 4.89943 16.1901
237 2 1.008 7.49354 5.11595 16.9447
238 1 15.9994 1.3763 1.77144 16.9347
239 2 1.008 0.444429 1.47633 16.8117
240 2 1.008 1.69026 1.25984 17.7188
241 1 15.9994 9.13353 1.82205 12.419
242 2 1.008 8.96966 2.7791 12.4476
243 2 1.008 9.85619 1.26695 10.8244
244 1 15.9994 13.0368 4.60954 10.0339
245 2 1.008 13.5132 4.95238 10.8242
246 2 1.008 13.5035 4.97852 9.2489
247 1 15.9994 14.3917 5.42055 12.4042
248 2 1.008 15.3378 5.11439 12.5028
249 2 1.008 13.9345 5.02452 13.1843
250 1 15.9994 13.0856 4.53917 14.6381
251 2 1.008 13.4998 4.85564 15.4936
252 2 1.008 13.1936 3.55508 14.7326
253 1 15.9994 10.4939 0.755397 14.6292
254 2 1.008 10.1196 1.15735 13.8282
255 2 1.008 9.55337 1.3204 16.0453
256 1 15.9994 10.4962 5.39225 14.6049
257 2 1.008 9.99211 5.12031 13.7968
258 2 1.008 11.433 5.07515 14.4881
259 1 15.9994 13.0718 1.85182 10.1365
260 2 1.008 13.7693 1.23737 11.621
261 2 1.008 14.0758 1.15112 13.24
262 1 15.9994 13.1601 1.72801 14.6952
263 2 1.008 13.5689 1.31296 15.4832
264 2 1.008 12.2051 1.40984 14.7273
265 1 15.9994 9.17718 4.54705 16.9462
266 2 1.008 9.05893 3.57391 16.7737
267 2 1.008 9.55421 4.94749 16.1473
268 1 15.9994 9.24773 4.53979 12.4071
269 2 1.008 8.29724 4.87712 12.2529
270 2 1.008 9.65719 4.74786 11.5324
271 1 15.9994 10.4488 5.39407 10.1597
272 2 1.008 10.1376 5.01232 9.29846
273 2 1.008 11.3986 5.10536 10.1912
274 1 15.9994 10.3957 0.89315 10.0969
275 2 1.008 10.4362 7.19226 10.2269
276 2 1.008 11.4063 8.42531 10.1304
277 1 15.9994 14.36 0.874462 12.3572
278 2 1.008 13.9075 1.14335 17.6929
279 2 1.008 15.424 5.20724 16.8494
280 1 15.9994 14.3644 0.812102 16.8906
281 2 1.008 14.4629 6.46498 16.9694
282 2 1.008 13.8343 8.59659 16.0796
283 1 15.9994 14.4897 5.49402 16.8742
284 2 1.008 15.1636 8.6505 16.7969
285 2 1.008 13.6853 8.85439 13.9654
286 1 15.9994 9.08237 1.73507 16.806
287 2 1.008 6.48978 7.19179 16.8962
288 2 1.008 10.5802 7.13007 14.7085
289 1 15.9994 1.39045 9.0863 12.4246
290 2 1.008 1.90325 8.79813 11.6409
291 2 1.008 1.22483 10.0622 12.3685
292 1 15.9994 5.24104 11.7984 10.1116
293 2 1.008 5.60292 12.1194 10.9631
294 2 1.008 4.27898 11.9639 10.016
295 1 15.9994 6.52784 12.7652 12.3735
296 2 1.008 6.12899 12.6075 13.2554
297 2 1.008 6.52991 13.7396 12.2453
298 1 15.9994 5.22503 11.876 14.6607
299 2 1.008 5.24803 10.9006 14.6702
300 2 1.008 4.25792 12.1635 14.7699
301 1 15.9994 2.54826 8.11927 14.6237
302 2 1.008 2.12312 8.56358 13.8425
303 2 1.008 3.4868 8.4259 14.6203
304 1 15.9994 2.6408 12.8065 14.7088
305 2 1.008 2.64203 13.783 14.7509
306 2 1.008 2.03153 12.4612 15.3812
307 1 15.9994 5.35878 9.09115 10.1961
308 2 1.008 5.36375 10.07 10.1489
309 2 1.008 5.7402 8.71569 9.3317
310 1 15.9994 5.17611 9.08029 14.5949
311 2 1.008 5.6987 8.69569 15.3493
312 2 1.008 5.63149 8.76717 13.7819
313 1 15.9994 1.36228 11.9949 16.8735
314 2 1.008 1.80801 12.3708 17.6663
315 2 1.008 0.405427 12.2074 16.8645
316 1 15.9994 1.33187 11.9268 12.3772
317 2 1.008 0.541094 12.4758 12.4672
318 2 1.008 1.95018 12.2431 13.0652
319 1 15.9994 2.66348 12.8371 10.0831
320 2 1.008 2.12767 12.538 10.9054
321 2 1.008 2.15255 12.6639 9.27622
322 1 15.9994 2.60339 8.1601 10.095
323 2 1.008 2.48327 7.16516 10.0769
324 2 1.008 3.55472 8.40017 10.1314
325 1 15.9994 6.5063 8.2482 12.4444
326 2 1.008 7.38348 8.6874 12.3537
327 2 1.008 6.07779 8.57284 11.5789
328 1 15.9994 6.53795 8.16631 16.8579
329 2 1.008 7.49216 8.4123 16.8512
330 2 1.008 9.59418 8.77303 17.7495
331 1 15.9994 6.56779 12.8038 16.9598
332 2 1.008 6.10925 12.4594 16.1525
333 2 1.008 6.0791 12.4837 17.7358
334 1 15.9994 1.28462 9.14948 16.9463
335 2 1.008 1.74042 8.75378 16.1622
336 2 1.008 1.39268 10.1238 16.9512
337 1 15.9994 9.26525 9.15443 12.4001
338 2 1.008 9.82426 8.68306 11.7375
339 2 1.008 9.53015 8.82212 13.2722
340 1 15.9994 13.0228 11.8978 10.1955
341 2 1.008 12.9405 10.9173 10.3
342 2 1.008 12.0993 12.2358 10.2233
343 1 15.9994 14.3522 12.9235 12.3893
344 2 1.008 13.9253 12.5351 11.5885
345 2 1.008 14.2778 13.9061 12.2091
346 1 15.9994 13.0144 11.9933 14.6306
347 2 1.008 13.4403 12.3876 13.8443
348 2 1.008 12.0563 12.1253 14.6674
349 1 15.9994 10.4718 8.10726 14.6668
350 2 1.008 11.3572 8.48309 14.5769
351 2 1.008 9.72871 8.77384 16.195
352 1 15.9994 10.4261 12.8618 14.7125
353 2 1.008 10.0028 12.5281 13.8885
354 2 1.008 9.92917 12.4242 15.4452
355 1 15.9994 13.0187 9.1291 10.1824
356 2 1.008 13.4392 8.73434 10.9854
357 2 1.008 15.3964 8.41694 12.3036
358 1 15.9994 13.0421 9.19596 14.6504
359 2 1.008 13.1991 10.1577 14.7694
360 2 1.008 14.4294 7.23243 12.4492
361 1 15.9994 9.11634 11.8969 16.9275
362 2 1.008 8.16853 12.1692 17.0527
363 2 1.008 9.19331 10.9122 16.9544
364 1 15.9994 9.115 11.9143 12.3914
365 2 1.008 8.20813 12.2772 12.3875
366 2 1.008 9.08858 10.9125 12.3415
367 1 15.9994 10.4285 12.7653 10.1673
368 2 1.008 10.4057 13.7477 10.2255
369 2 1.008 9.88348 12.3637 10.8821
370 1 15.9994 10.4507 8.16012 10.2294
371 2 1.008 6.47922 14.5418 7.9702
372 2 1.008 10.4298 14.49 14.5834
373 1 15.9994 14.4487 8.20431 12.4106
374 2 1.008 13.8103 12.389 16.1724
375 2 1.008 13.9627 12.5498 17.7909
376 1 15.9994 14.2936 8.22865 16.8789
377 2 1.008 14.3526 14.5348 16.8974
378 2 1.008 6.6266 14.5045 17.0833
379 1 15.9994 14.3915 12.796 16.8811
380 2 1.008 14.3631 14.5406 7.95529
381 2 1.008 14.3023 14.5448 3.46792
382 1 15.9994 9.18488 9.16075 16.9126
383 2 1.008 2.70886 14.6256 10.0731
384 2 1.008 6.59 14.4895 3.41442
ITEM: TIMESTEP
100
ITEM: NUMBER OF ATOMS
384
ITEM: BOX BOUNDS xy xz yz pp pp pp
0.0000000000000000e+00 1.5645677531129000e+01 0.0000000000000000e+00
0.0000000000000000e+00 1.4707145294364000e+01 0.0000000000000000e+00
0.0000000000000000e+00 1.8073037030847999e+01 0.0000000000000000e+00
ITEM: ATOMS id type mass x y z
1 1 15.9994 1.3426 1.67616 3.39513
2 2 1.008 1.36271 2.6523 3.5004
3 2 1.008 0.382707 1.43418 3.54398
4 1 15.9994 5.31544 4.567 1.23258
5 2 1.008 5.76999 4.92082 2.047
6 2 1.008 5.86363 4.86329 0.478285
7 1 15.9994 6.5332 5.59784 3.29972
8 2 1.008 6.17714 5.28072 4.13983
9 2 1.008 6.5962 6.5826 3.35738
10 1 15.9994 5.33878 4.5818 5.70257
11 2 1.008 4.36573 4.86179 5.69028
12 2 1.008 5.7711 4.93344 6.50934
13 1 15.9994 2.55403 0.917727 5.54934
14 2 1.008 2.12929 1.29 4.74607
15 2 1.008 3.49437 1.28562 5.58915
16 1 15.9994 2.63396 5.50719 5.59993
17 2 1.008 2.5849 6.50271 5.62574
18 2 1.008 2.29372 5.22055 6.43964
19 1 15.9994 5.19796 1.7859 1.26051
20 2 1.008 5.25698 2.74347 1.32414
21 2 1.008 5.62578 1.40085 2.05776
22 1 15.9994 5.25486 1.77928 5.63529
23 2 1.008 5.63441 1.45351 6.46342
24 2 1.008 5.3022 2.76467 5.7046
25 1 15.9994 1.46661 4.62705 7.92018
26 2 1.008 1.39651 3.63864 7.89895
27 2 1.008 1.99962 4.9417 8.70753
28 1 15.9994 1.3849 4.35661 3.37147
29 2 1.008 1.88449 4.69277 2.61134
30 2 1.008 1.85152 4.61973 4.22111
31 1 15.9994 2.61237 5.38138 1.21215
32 2 1.008 2.58694 6.38722 1.2021
33 2 1.008 3.5952 5.20144 1.2889
34 1 15.9994 2.58023 0.88602 1.07362
35 2 1.008 2.16781 1.1803 1.92233
36 2 1.008 3.55348 1.18344 1.10803