ITEM: TIMESTEP
90
ITEM: NUMBER OF ATOMS
96
ITEM: BOX BOUNDS xy xz yz pp pp pp
0.0000000000000000e+00 9.8561592306680001e+00 0.0000000000000000e+00
0.0000000000000000e+00 9.2649209701160000e+00 0.0000000000000000e+00
0.0000000000000000e+00 1.1385299895347000e+01 0.0000000000000000e+00
ITEM: ATOMS id type mass x y z
1 1 15.9994 1.82138 9.08696 1.48346
2 2 1.008 1.54992 0.750044 1.70978
3 2 1.008 0.0967479 8.66704 1.29373
4 1 15.9994 3.46108 3.07285 11.0133
5 2 1.008 3.77046 4.46717 0.552005
6 2 1.008 3.89968 3.30809 10.1839
7 1 15.9994 3.92204 5.2698 1.12299
8 2 1.008 4.12733 3.04657 2.84793
9 2 1.008 3.16598 5.30098 1.72811
10 1 15.9994 3.31929 2.94935 3.38956
11 2 1.008 2.34556 4.61422 3.45271
12 2 1.008 3.73357 3.83494 4.91582
13 1 15.9994 1.10267 7.85486 4.32553
14 2 1.008 0.863634 8.16554 3.43547
15 2 1.008 2.94033 9.08642 3.58348
16 1 15.9994 1.83991 5.37924 3.11504
17 2 1.008 1.89422 6.07725 3.78063
18 2 1.008 0.905437 3.6511 4.87027
19 1 15.9994 2.82927 0.633859 10.4811
20 2 1.008 3.0578 1.62697 10.6892
21 2 1.008 4.6017 6.98387 1.55808
22 1 15.9994 3.47724 0.459105 4.0828
23 2 1.008 3.45326 0.172872 5.03949
24 2 1.008 3.32505 2.00434 3.70215
25 1 15.9994 0.983462 3.64718 5.82605
26 2 1.008 0.929774 1.61157 6.22545
27 2 1.008 1.84193 4.05169 6.02426
28 1 15.9994 1.01629 2.37899 2.06802
29 2 1.008 0.825583 2.95646 1.3068
30 2 1.008 1.87808 2.67847 2.38737
31 1 15.9994 1.2182 4.23779 11.1706
32 2 1.008 1.46965 5.15628 11.2807
33 2 1.008 2.10812 3.74649 10.9939
34 1 15.9994 1.91373 0.746837 9.37943
35 2 1.008 1.03987 0.786801 9.80676
36 2 1.008 2.15739 9.22645 0.563885
37 1 15.9994 4.54178 7.89163 1.91004
38 2 1.008 3.63223 8.17433 1.74283
39 2 1.008 5.62272 0.0374744 1.29321
40 1 15.9994 3.62644 8.95675 6.60707
41 2 1.008 2.87464 0.0568634 7.10307
42 2 1.008 4.46288 0.0333688 6.98102
43 1 15.9994 3.77372 4.46857 5.66544
44 2 1.008 5.27626 3.61518 6.50458
45 2 1.008 4.39919 5.14437 5.34356
46 1 15.9994 1.034 0.638394 6.23618
47 2 1.008 1.22777 8.65791 4.87114
48 2 1.008 0.21443 0.243877 6.59792
49 1 15.9994 6.17925 0.769485 1.01538
50 2 1.008 5.80023 1.57659 1.4031
51 2 1.008 6.10654 0.67655 10.7135
52 1 15.9994 8.55689 3.60184 11.3467
53 2 1.008 8.79053 1.93069 10.8616
54 2 1.008 9.35044 3.94046 10.9038
55 1 15.9994 8.96115 5.05399 2.37785
56 2 1.008 0.0547991 5.13544 2.46877
57 2 1.008 8.77797 4.65804 1.49387
58 1 15.9994 7.95977 3.11034 3.78855
59 2 1.008 8.43947 3.8279 3.29801
60 2 1.008 6.69197 5.20341 4.6169
61 1 15.9994 6.14127 8.50288 4.10967
62 2 1.008 5.39742 8.42926 3.45435
63 2 1.008 7.44176 0.0504244 3.66356
64 1 15.9994 5.878 5.67209 4.33019
65 2 1.008 6.42895 3.42269 2.77304
66 2 1.008 6.1485 6.59334 4.25208
67 1 15.9994 8.9546 1.03298 10.4943
68 2 1.008 8.15903 0.788996 9.98096
69 2 1.008 8.79542 0.0787032 0.502175
70 1 15.9994 8.31825 0.475883 3.43412
71 2 1.008 9.1926 7.844 5.39392
72 2 1.008 8.26425 1.45627 3.5347
73 1 15.9994 6.13678 3.18267 6.65843
74 2 1.008 6.32826 1.4515 6.64742
75 2 1.008 6.80079 3.8718 6.79722
76 1 15.9994 5.69813 3.35708 2.10925
77 2 1.008 5.38705 4.26372 1.91552
78 2 1.008 5.6882 3.27002 11.0047
79 1 15.9994 6.17147 3.46538 10.175
80 2 1.008 6.12129 2.62626 9.67972
81 2 1.008 7.76268 3.71136 10.7972
82 1 15.9994 6.03436 0.636569 9.72552
83 2 1.008 5.12815 0.35458 9.58422
84 2 1.008 8.60514 0.130547 2.42454
85 1 15.9994 8.97206 8.8097 1.33005
86 2 1.008 7.95373 8.49053 6.09455
87 2 1.008 7.91638 3.38006 4.71157
88 1 15.9994 8.7498 7.94809 6.25537
89 2 1.008 8.36938 2.39372 7.81138
90 2 1.008 8.96368 1.9962 8.00776
91 1 15.9994 8.34967 4.92359 6.27127
92 2 1.008 9.25362 4.55737 6.30734
93 2 1.008 8.42491 5.88027 6.41058
94 1 15.9994 6.38772 0.479983 6.75165
95 2 1.008 5.75446 8.85602 4.92592
96 2 1.008 6.61263 0.344538 7.67284
ITEM: TIMESTEP
100
ITEM: NUMBER OF ATOMS
96
ITEM: BOX BOUNDS xy xz yz pp pp pp
0.0000000000000000e+00 9.8561592306680001e+00 0.0000000000000000e+00
0.0000000000000000e+00 9.2649209701160000e+00 0.0000000000000000e+00
0.0000000000000000e+00 1.1385299895347000e+01 0.0000000000000000e+00
ITEM: ATOMS id type mass x y z
1 1 15.9994 1.82985 9.06784 1.50869
2 2 1.008 1.55274 0.747038 1.63585
3 2 1.008 0.0650159 8.67286 1.28656
4 1 15.9994 3.4701 3.07174 11.0449
5 2 1.008 3.80842 4.43843 0.549178
6 2 1.008 3.91496 3.30791 10.2286
7 1 15.9994 3.93363 5.28136 1.10017
8 2 1.008 4.16742 3.13362 2.9117
9 2 1.008 3.11379 5.35266 1.63924
10 1 15.9994 3.32631 2.95047 3.40157
11 2 1.008 2.42264 4.66994 3.41327
12 2 1.008 3.82595 3.85822 4.94403
13 1 15.9994 1.07858 7.87196 4.30997
14 2 1.008 0.875906 8.10309 3.4049
15 2 1.008 2.91326 9.1128 3.62538
16 1 15.9994 1.85485 5.38971 3.10099
17 2 1.008 1.83641 6.07081 3.80921
18 2 1.008 0.868196 3.65349 4.86704
19 1 15.9994 2.8162 0.625356 10.5137
20 2 1.008 3.01957 1.65222 10.7229
21 2 1.008 4.55805 6.9289 1.62058
22 1 15.9994 3.47888 0.456019 4.08299
23 2 1.008 3.48289 0.186063 5.03647
24 2 1.008 3.31984 1.97983 3.64815
25 1 15.9994 1.00847 3.66516 5.83752
26 2 1.008 0.942479 1.55805 6.21217
27 2 1.008 1.82777 4.15673 6.08633
28 1 15.9994 1.02379 2.34112 2.06514
29 2 1.008 0.871155 2.88288 1.27432
30 2 1.008 1.87801 2.73363 2.42105
31 1 15.9994 1.20807 4.22182 11.1927
32 2 1.008 1.43014 5.1561 11.2724
33 2 1.008 2.09832 3.82462 10.8655
34 1 15.9994 1.90818 0.756794 9.37798
35 2 1.008 1.01769 0.748555 9.77112
36 2 1.008 2.05432 9.2312 0.537186
37 1 15.9994 4.55209 7.85679 1.93168
38 2 1.008 3.62926 8.14832 1.75905
39 2 1.008 5.64544 -0.0124398 1.30546
40 1 15.9994 3.61147 8.94546 6.59316
41 2 1.008 2.84899 0.129191 7.00461
42 2 1.008 4.42695 -0.0556028 7.00127
43 1 15.9994 3.77441 4.50469 5.67631
44 2 1.008 5.305 3.67139 6.47503
45 2 1.008 4.40315 5.20741 5.42704
46 1 15.9994 1.02085 0.610828 6.22158
47 2 1.008 1.21014 8.68765 4.83037
48 2 1.008 0.261669 0.226176 6.65986
49 1 15.9994 6.19193 0.77333 0.98767
50 2 1.008 5.75636 1.56963 1.33783
51 2 1.008 6.08946 0.567245 10.7177
52 1 15.9994 8.5656 3.62323 11.3303
53 2 1.008 8.77422 1.90438 10.9048
54 2 1.008 9.35263 3.97322 10.8399
55 1 15.9994 8.99286 5.06016 2.36696
56 2 1.008 0.135368 5.16199 2.45632
57 2 1.008 8.78533 4.60071 1.53646
58 1 15.9994 7.95896 3.1399 3.79258
59 2 1.008 8.37865 3.88284 3.23655
60 2 1.008 6.63098 5.2328 4.66076
61 1 15.9994 6.14908 8.53006 4.08888
62 2 1.008 5.42458 8.48388 3.45222
63 2 1.008 7.45476 0.0171674 3.70454
64 1 15.9994 5.85567 5.66868 4.33304
65 2 1.008 6.40319 3.46633 2.7493
66 2 1.008 6.16052 6.60832 4.2646
67 1 15.9994 8.95802 1.0217 10.508
68 2 1.008 8.21124 0.738091 9.98878
69 2 1.008 8.78118 -0.0247011 0.500464
70 1 15.9994 8.30874 0.49362 3.46136
71 2 1.008 9.14958 7.82937 5.36406
72 2 1.008 8.27545 1.47098 3.65431
73 1 15.9994 6.12931 3.17098 6.6392
74 2 1.008 6.2561 1.42807 6.59181
75 2 1.008 6.82906 3.79718 6.93224
76 1 15.9994 5.7152 3.34887 2.09128
77 2 1.008 5.40819 4.21835 1.79723
78 2 1.008 5.73655 3.2083 10.9808
79 1 15.9994 6.13513 3.44596 10.158
80 2 1.008 6.13027 2.62935 9.63435
81 2 1.008 7.73426 3.70297 10.7709
82 1 15.9994 6.00961 0.640373 9.72953
83 2 1.008 5.09264 0.325717 9.54332
84 2 1.008 8.60463 0.146114 2.42862
85 1 15.9994 8.97042 8.80662 1.36061
86 2 1.008 7.93233 8.40285 6.09047
87 2 1.008 7.83918 3.46072 4.70495
88 1 15.9994 8.75842 7.93513 6.24863
89 2 1.008 8.35319 2.51704 7.77756
90 2 1.008 8.95872 2.09601 7.91759
91 1 15.9994 8.37357 4.95786 6.28
92 2 1.008 9.28455 4.61205 6.28773
93 2 1.008 8.32426 5.92421 6.39469
94 1 15.9994 6.38935 0.45155 6.74103
95 2 1.008 5.73911 8.87948 4.89308
96 2 1.008 6.57596 0.286179 7.70201
ITEM: TIMESTEP
110
ITEM: NUMBER OF ATOMS
96
ITEM: BOX BOUNDS xy xz yz pp pp pp
0.0000000000000000e+00 9.8561592306680001e+00 0.0000000000000000e+00
0.0000000000000000e+00 9.2649209701160000e+00 0.0000000000000000e+00
0.0000000000000000e+00 1.1385299895347000e+01 0.0000000000000000e+00
ITEM: ATOMS id type mass x y z
1 1 15.9994 1.83451 9.05857 1.52182
2 2 1.008 1.57042 0.726934 1.71895
3 2 1.008 0.106195 8.66057 1.33826
4 1 15.9994 3.4744 3.07568 11.0737
5 2 1.008 3.8045 4.41347 0.540827
6 2 1.008 3.9639 3.29817 10.2597
7 1 15.9994 3.94107 5.28896 1.07213
8 2 1.008 4.1924 3.1281 2.97458
9 2 1.008 3.11802 5.37843 1.56099
10 1 15.9994 3.33027 2.95804 3.41036
11 2 1.008 2.48656 4.70087 3.37864
12 2 1.008 3.91297 3.90442 4.95448
13 1 15.9994 1.0566 7.8847 4.30754
14 2 1.008 0.851676 8.12695 3.37046
15 2 1.008 2.89856 9.06418 3.6291
16 1 15.9994 1.86357 5.40421 3.09336
17 2 1.008 1.79695 6.04418 3.7954
18 2 1.008 0.940698 3.69421 4.91105
19 1 15.9994 2.79598 0.624018 10.5353
20 2 1.008 2.98743 1.54623 10.7696
21 2 1.008 4.55611 6.87031 1.68294
22 1 15.9994 3.48155 0.458414 4.08427
23 2 1.008 3.49385 0.182474 5.03649
24 2 1.008 3.36311 1.9859 3.60743
25 1 15.9994 1.02431 3.68681 5.85501
26 2 1.008 0.910906 1.56773 6.19569
27 2 1.008 1.78582 4.23226 6.03821
28 1 15.9994 1.03424 2.31216 2.06301
29 2 1.008 0.886462 2.79977 1.22809
30 2 1.008 1.82135 2.69681 2.41992
31 1 15.9994 1.20218 4.22104 11.2105
32 2 1.008 1.34526 5.17207 11.2378
33 2 1.008 2.0363 3.81378 10.861
34 1 15.9994 1.90831 0.770875 9.37707
35 2 1.008 1.00854 0.706306 9.76433
36 2 1.008 2.03326 9.0942 0.5685
37 1 15.9994 4.55615 7.81646 1.9519
38 2 1.008 3.67593 8.12935 1.76011
39 2 1.008 5.70611 0.0236945 1.27214
40 1 15.9994 3.5915 8.93041 6.57248
41 2 1.008 2.83988 0.169477 6.92485
42 2 1.008 4.42606 -0.0819964 7.04677
43 1 15.9994 3.77654 4.53367 5.69812
44 2 1.008 5.37081 3.72785 6.44873
45 2 1.008 4.39334 5.24883 5.43896
46 1 15.9994 1.01597 0.57813 6.20738
47 2 1.008 1.16748 8.72478 4.80944
48 2 1.008 0.294349 0.184905 6.75422
49 1 15.9994 6.19628 0.772575 0.963749
50 2 1.008 5.75845 1.57757 1.28676
51 2 1.008 6.03145 0.507583 10.7159
52 1 15.9994 8.57483 3.64753 11.3063
53 2 1.008 8.75952 1.91501 10.8786
54 2 1.008 9.32972 3.9796 10.819
55 1 15.9994 9.02467 5.06455 2.35389
56 2 1.008 0.10024 5.12822 2.39271
57 2 1.008 8.86958 4.53513 1.52561
58 1 15.9994 7.95537 3.17376 3.79949
59 2 1.008 8.38599 3.8963 3.29569
60 2 1.008 6.62637 5.17608 4.73617
61 1 15.9994 6.154 8.55535 4.07334
62 2 1.008 5.4355 8.48998 3.37514
63 2 1.008 7.44177 0.0437704 3.74158
64 1 15.9994 5.83735 5.66821 4.34022
65 2 1.008 6.43722 3.47921 2.7617
66 2 1.008 6.13053 6.5641 4.24832
67 1 15.9994 8.96554 1.00937 10.5364
68 2 1.008 8.20699 0.749425 9.96628
69 2 1.008 8.73663 -0.0468579 0.510633
70 1 15.9994 8.29579 0.510283 3.48673
71 2 1.008 9.17616 7.8218 5.36323
72 2 1.008 8.26058 1.48107 3.6809
73 1 15.9994 6.12518 3.15317 6.62497
74 2 1.008 6.24456 1.3632 6.61415
75 2 1.008 6.78799 3.74782 6.97114
76 1 15.9994 5.73385 3.34219 2.07701
77 2 1.008 5.45149 4.1997 1.701
78 2 1.008 5.69376 3.13011 11.0001
79 1 15.9994 6.10905 3.43296 10.1298
80 2 1.008 6.12728 2.58463 9.63967
81 2 1.008 7.77925 3.71517 10.7505
82 1 15.9994 5.98113 0.642218 9.73273
83 2 1.008 5.10919 0.314661 9.53787
84 2 1.008 8.59365 0.231488 2.47293
85 1 15.9994 8.97067 8.80005 1.3827
86 2 1.008 7.8993 8.35288 6.10535
87 2 1.008 7.79392 3.53766 4.66981
88 1 15.9994 8.76459 7.91768 6.23855
89 2 1.008 8.36365 2.61668 7.74008
90 2 1.008 8.98357 2.21316 7.79776
91 1 15.9994 8.38792 4.98496 6.29332
92 2 1.008 9.34155 4.74201 6.27153
93 2 1.008 8.38271 5.94874 6.36195
94 1 15.9994 6.3871 0.416147 6.72049
95 2 1.008 5.78145 8.8863 4.89729
96 2 1.008 6.50617 0.333539 7.65588
ITEM: TIMESTEP
120
ITEM: NUMBER OF ATOMS
96
ITEM: BOX BOUNDS xy xz yz pp pp pp
0.0000000000000000e+00 9.8561592306680001e+00 0.0000000000000000e+00
0.0000000000000000e+00 9.2649209701160000e+00 0.0000000000000000e+00
0.0000000000000000e+00 1.1385299895347000e+01 0.0000000000000000e+00
ITEM: ATOMS id type mass x y z
1 1 15.9994 1.83006 9.04854 1.53816
2 2 1.008 1.63993 0.717991 1.81587
3 2 1.008 0.0729954 8.69453 1.41839
4 1 15.9994 3.47868 3.08414 11.0968
5 2 1.008 3.74896 4.45279 0.526725
6 2 1.008 3.99682 3.24052 10.3011
7 1 15.9994 3.95039 5.28326 1.03621
8 2 1.008 4.20582 3.13088 2.97125
9 2 1.008 3.11259 5.4121 1.52215
10 1 15.9994 3.33481 2.97536 3.42238
11 2 1.008 2.50984 4.76166 3.38639
12 2 1.008 3.90036 3.9383 4.98958
13 1 15.9994 1.03337 7.89519 4.29567
14 2 1.008 0.836854 8.1697 3.42041
15 2 1.008 2.98311 9.05332 3.65136
16 1 15.9994 1.87929 5.41384 3.08245
17 2 1.008 1.7678 6.06919 3.8302
18 2 1.008 1.00721 3.7185 4.87592
19 1 15.9994 2.76564 0.616492 10.5363
20 2 1.008 2.99814 1.62935 10.8323
21 2 1.008 4.55859 6.82376 1.71263
22 1 15.9994 3.47833 0.455944 4.07533
23 2 1.008 3.51424 0.159297 5.02859
24 2 1.008 3.38207 2.0048 3.65436
25 1 15.9994 1.03953 3.70097 5.8706
26 2 1.008 0.834231 1.49583 6.20401
27 2 1.008 1.84945 4.27493 6.00297
28 1 15.9994 1.02618 2.28226 2.05818
29 2 1.008 0.909738 2.7276 1.21177
30 2 1.008 1.86423 2.69985 2.45125
31 1 15.9994 1.18766 4.22783 11.2267
32 2 1.008 1.26485 5.18454 11.2022
33 2 1.008 2.07711 3.73919 10.9607
34 1 15.9994 1.91348 0.786558 9.38274
35 2 1.008 1.03408 0.706439 9.76346
36 2 1.008 2.10011 9.00146 0.585002
37 1 15.9994 4.56784 7.76849 1.97944
38 2 1.008 3.66293 8.125 1.76132
39 2 1.008 5.68265 -0.0275724 1.28337
40 1 15.9994 3.56938 8.9114 6.54842
41 2 1.008 2.8485 0.169351 6.924
42 2 1.008 4.33028 -0.103188 7.04605
43 1 15.9994 3.77849 4.56277 5.7248
44 2 1.008 5.33548 3.71097 6.42125
45 2 1.008 4.34604 5.29046 5.41496
46 1 15.9994 1.01578 0.556131 6.20488
47 2 1.008 1.10605 8.73033 4.80041
48 2 1.008 0.347953 0.197952 6.78119
49 1 15.9994 6.20928 0.776428 0.934245
50 2 1.008 5.75085 1.56604 1.271
51 2 1.008 6.00131 0.543193 10.7207
52 1 15.9994 8.57503 3.67144 11.2918
53 2 1.008 8.73743 1.90247 10.8772
54 2 1.008 9.38744 3.97509 10.8035
55 1 15.9994 9.04378 5.06563 2.33937
56 2 1.008 0.206922 5.09325 2.40004
57 2 1.008 8.90892 4.53909 1.54994
58 1 15.9994 7.94695 3.2033 3.80855
59 2 1.008 8.48201 3.92195 3.33742
60 2 1.008 6.52214 5.19598 4.76405
61 1 15.9994 6.15388 8.57345 4.05835
62 2 1.008 5.48527 8.48821 3.38547
63 2 1.008 7.37007 0.0872364 3.72249
64 1 15.9994 5.83532 5.65456 4.35697
65 2 1.008 6.46214 3.5206 2.67603
66 2 1.008 6.13906 6.58669 4.22598
67 1 15.9994 8.9703 1.00219 10.5566
68 2 1.008 8.22781 0.800976 9.98842
69 2 1.008 8.68478 -0.0287563 0.606264
70 1 15.9994 8.28519 0.530997 3.50979
71 2 1.008 9.2081 7.82742 5.36044
72 2 1.008 8.22672 1.52423 3.63154
73 1 15.9994 6.12025 3.14083 6.60914
74 2 1.008 6.23803 1.36488 6.59847
75 2 1.008 6.79419 3.75148 6.96638
76 1 15.9994 5.75701 3.34076 2.06162
77 2 1.008 5.47897 4.18244 1.65557
78 2 1.008 5.69421 3.14545 10.9091
79 1 15.9994 6.09061 3.4214 10.1029
80 2 1.008 6.13951 2.55226 9.66287
81 2 1.008 7.75929 3.75616 10.7192
82 1 15.9994 5.95813 0.628179 9.73205
83 2 1.008 5.04218 0.289904 9.5294
84 2 1.008 8.55569 0.262491 2.52922
85 1 15.9994 8.97152 8.79083 1.40518
86 2 1.008 7.91077 8.28077 6.11738
87 2 1.008 7.77324 3.5741 4.71085
88 1 15.9994 8.77087 7.89085 6.23288
89 2 1.008 8.35469 2.67082 7.70122
90 2 1.008 9.00471 2.32934 7.71847
91 1 15.9994 8.40717 5.01067 6.30151
92 2 1.008 9.36701 4.82952 6.24344
93 2 1.008 8.48105 6.00007 6.34157
94 1 15.9994 6.39142 0.38778 6.69553
95 2 1.008 5.79114 8.91112 4.90433
96 2 1.008 6.49228 0.357063 7.692
ITEM: TIMESTEP
130
ITEM: NUMBER OF ATOMS
96
ITEM: BOX BOUNDS xy xz yz pp pp pp
0.0000000000000000e+00 9.8561592306680001e+00 0.0000000000000000e+00
0.0000000000000000e+00 9.2649209701160000e+00 0.0000000000000000e+00
0.0000000000000000e+00 1.1385299895347000e+01 0.0000000000000000e+00
ITEM: ATOMS id type mass x y z
1 1 15.9994 1.82839 9.02896 1.5577
2 2 1.008 1.71116 0.721257 1.77597
3 2 1.008 0.0991177 8.77786 1.43292
4 1 15.9994 3.47561 3.08469 11.111
5 2 1.008 3.74402 4.44107 0.448347
6 2 1.008 3.98886 3.18048 10.2934
7 1 15.9994 3.95392 5.2766 1.004
8 2 1.008 4.16291 3.12362 2.93534
9 2 1.008 3.143 5.46239 1.49915
10 1 15.9994 3.34506 2.99272 3.43803
11 2 1.008 2.54228 4.7604 3.43936
12 2 1.008 3.81488 3.94036 4.99365
13 1 15.9994 1.01362 7.90334 4.28564
14 2 1.008 0.789157 8.1977 3.35939
15 2 1.008 3.0067 8.99242 3.58069
16 1 15.9994 1.89313 5.42227 3.07695
17 2 1.008 1.77318 6.04596 3.77843
18 2 1.008 1.00177 3.7152 4.92985
19 1 15.9994 2.73535 0.624974 10.535
20 2 1.008 2.98226 1.54359 10.7826
21 2 1.008 4.54521 6.80874 1.69219
22 1 15.9994 3.47277 0.44955 4.07679
23 2 1.008 3.53171 0.154316 5.0202
24 2 1.008 3.36992 2.04754 3.7581
25 1 15.9994 1.06263 3.72165 5.87159
26 2 1.008 0.803145 1.48924 6.17457
27 2 1.008 1.88159 4.17941 6.0358
28 1 15.9994 1.02958 2.25672 2.05422
29 2 1.008 0.931495 2.70554 1.19473
30 2 1.008 1.7955 2.6535 2.43824
31 1 15.9994 1.18288 4.2346 11.2458
32 2 1.008 1.27729 5.17747 11.1433
33 2 1.008 2.10689 3.82206 11.1354
34 1 15.9994 1.92686 0.806225 9.38829
35 2 1.008 1.01631 0.741347 9.7731
36 2 1.008 2.1345 9.0915 0.634858
37 1 15.9994 4.57808 7.73055 2.00449
38 2 1.008 3.71914 8.06639 1.7862
39 2 1.008 5.75103 0.0459928 1.25439
40 1 15.9994 3.54379 8.8868 6.52752
41 2 1.008 2.80024 0.109276 6.93785
42 2 1.008 4.33846 -0.0942513 7.03979
43 1 15.9994 3.77457 4.58609 5.74623
44 2 1.008 5.30914 3.63169 6.44796
45 2 1.008 4.30438 5.34399 5.42802
46 1 15.9994 1.02056 0.53837 6.20718
47 2 1.008 1.03736 8.71273 4.85697
48 2 1.008 0.334309 0.126085 6.78701
49 1 15.9994 6.22266 0.772047 0.906523
50 2 1.008 5.76994 1.55255 1.27002
51 2 1.008 6.01453 0.657316 10.7246
52 1 15.9994 8.56849 3.70291 11.2693
53 2 1.008 8.77832 1.90503 10.9119
54 2 1.008 9.38777 3.96517 10.8397
55 1 15.9994 9.06785 5.06817 2.32872
56 2 1.008 0.130365 5.07593 2.47785
57 2 1.008 8.90157 4.53338 1.49955
58 1 15.9994 7.93462 3.23697 3.82931
59 2 1.008 8.53248 3.89141 3.40051
60 2 1.008 6.57557 5.19122 4.87131
61 1 15.9994 6.16359 8.58387 4.04924
62 2 1.008 5.40288 8.49664 3.3688
63 2 1.008 7.36881 0.144884 3.67576
64 1 15.9994 5.82715 5.64728 4.3659
65 2 1.008 6.56118 3.55484 2.61871
66 2 1.008 6.16338 6.52482 4.22519
67 1 15.9994 8.97035 1.00454 10.5653
68 2 1.008 8.22577 0.780777 9.97553
69 2 1.008 8.71922 0.0413588 0.619885
70 1 15.9994 8.27047 0.56021 3.53864
71 2 1.008 9.22267 7.84203 5.38017
72 2 1.008 8.20451 1.55008 3.58836
73 1 15.9994 6.12056 3.12846 6.59336
74 2 1.008 6.2849 1.32525 6.52322
75 2 1.008 6.77725 3.73412 6.93658
76 1 15.9994 5.77311 3.34368 2.0394
77 2 1.008 5.49304 4.19429 1.669
78 2 1.008 5.6432 3.21999 10.9573
79 1 15.9994 6.07243 3.4076 10.0661
80 2 1.008 6.18724 2.5452 9.62326
81 2 1.008 7.8043 3.79592 10.7147
82 1 15.9994 5.9269 0.609667 9.72655
83 2 1.008 5.02844 0.347223 9.55712
84 2 1.008 8.54871 0.197393 2.5312
85 1 15.9994 8.95796 8.77727 1.44336
86 2 1.008 7.89054 8.24878 6.08974
87 2 1.008 7.79619 3.51595 4.72515
88 1 15.9994 8.78044 7.84943 6.23759
89 2 1.008 8.3411 2.69865 7.67992
90 2 1.008 9.03192 2.42632 7.66934
91 1 15.9994 8.44003 5.05152 6.30621
92 2 1.008 9.35747 4.74694 6.2496
93 2 1.008 8.45408 6.01183 6.32702
94 1 15.9994 6.39556 0.374984 6.68547
95 2 1.008 5.76599 8.90063 4.85764
96 2 1.008 6.50256 0.302942 7.63079
ITEM: TIMESTEP
140
ITEM: NUMBER OF ATOMS
96
ITEM: BOX BOUNDS xy xz yz pp pp pp
0.0000000000000000e+00 9.8561592306680001e+00 0.0000000000000000e+00
0.0000000000000000e+00 9.2649209701160000e+00 0.0000000000000000e+00
0.0000000000000000e+00 1.1385299895347000e+01 0.0000000000000000e+00
ITEM: ATOMS id type mass x y z
1 1 15.9994 1.82779 9.00762 1.56686
2 2 1.008 1.72608 0.716517 1.75715
3 2 1.008 0.0645844 8.82396 1.4544
4 1 15.9994 3.4665 3.08115 11.1205
5 2 1.008 3.79527 4.42688 0.431315
6 2 1.008 3.87539 3.1353 10.2659
7 1 15.9994 3.9582 5.26951 0.967088
8 2 1.008 4.16823 3.09399 2.85482
9 2 1.008 3.18253 5.46452 1.52741
10 1 15.9994 3.36083 3.01802 3.46165
11 2 1.008 2.49784 4.76549 3.45418
12 2 1.008 3.69004 3.99135 5.00983
13 1 15.9994 0.991391 7.90637 4.27939
14 2 1.008 0.785241 8.21763 3.42267
15 2 1.008 3.01952 9.02064 3.57246
16 1 15.9994 1.9049 5.42557 3.07304
17 2 1.008 1.76001 6.15194 3.75172
18 2 1.008 0.962629 3.7031 4.90758
19 1 15.9994 2.71616 0.634406 10.5334
20 2 1.008 3.02804 1.60228 10.7678
21 2 1.008 4.60212 6.76985 1.65346
22 1 15.9994 3.47191 0.44085 4.07644
23 2 1.008 3.4995 0.117481 5.0192
24 2 1.008 3.32661 2.08583 3.80745
25 1 15.9994 1.07759 3.74782 5.88679
26 2 1.008 0.798747 1.47659 6.14434
27 2 1.008 1.99678 4.09337 6.10375
28 1 15.9994 1.01917 2.23044 2.04592
29 2 1.008 0.945821 2.72036 1.22431
30 2 1.008 1.81511 2.68767 2.47617
31 1 15.9994 1.18377 4.24053 11.2614
32 2 1.008 1.33624 5.18283 11.0828
33 2 1.008 2.15683 3.89085 11.2109
34 1 15.9994 1.93048 0.826156 9.38956
35 2 1.008 1.03104 0.82577 9.7357
36 2 1.008 2.15652 9.20095 0.650259
37 1 15.9994 4.59092 7.70069 2.01754
38 2 1.008 3.6798 8.01882 1.81077
39 2 1.008 5.75819 -0.0552908 1.2814
40 1 15.9994 3.52257 8.8661 6.51246
41 2 1.008 2.7368 0.00644813 6.90099
42 2 1.008 4.32798 -0.115803 6.93389
43 1 15.9994 3.76156 4.59915 5.76256
44 2 1.008 5.26022 3.58117 6.50036
45 2 1.008 4.2665 5.35267 5.40868
46 1 15.9994 1.02042 0.530365 6.21479
47 2 1.008 1.00916 8.67568 4.85904
48 2 1.008 0.337913 0.0546263 6.69993
49 1 15.9994 6.2412 0.771888 0.889002
50 2 1.008 5.83868 1.57524 1.26565
51 2 1.008 5.99947 0.750334 10.6949
52 1 15.9994 8.55641 3.7265 11.2535
53 2 1.008 8.79819 1.90233 10.9089
54 2 1.008 9.43193 3.95232 10.8497
55 1 15.9994 9.07932 5.0697 2.31841
56 2 1.008 0.218637 5.06814 2.52467
57 2 1.008 8.92351 4.619 1.49059
58 1 15.9994 7.92537 3.25338 3.84647
59 2 1.008 8.54794 3.91721 3.4395
60 2 1.008 6.51937 5.24894 4.89903
61 1 15.9994 6.16634 8.5847 4.02946
62 2 1.008 5.44253 8.48406 3.43296
63 2 1.008 7.32249 0.189141 3.70434
64 1 15.9994 5.82877 5.63617 4.37721
65 2 1.008 6.5742 3.52628 2.53695
66 2 1.008 6.17823 6.53609 4.20954
67 1 15.9994 8.97072 1.00737 10.5697
68 2 1.008 8.23794 0.737203 9.99817
69 2 1.008 8.78412 0.0424663 0.688168
70 1 15.9994 8.26371 0.590264 3.56271
71 2 1.008 9.25727 7.85146 5.37547
72 2 1.008 8.1713 1.57962 3.55688
73 1 15.9994 6.1211 3.11671 6.58018
74 2 1.008 6.34487 1.31486 6.47146
75 2 1.008 6.75836 3.76795 6.93
76 1 15.9994 5.79723 3.35095 2.01836
77 2 1.008 5.44577 4.19341 1.6847
78 2 1.008 5.68062 3.25442 10.8991
79 1 15.9994 6.057 3.39582 10.0365
80 2 1.008 6.19796 2.52816 9.62012
81 2 1.008 7.79772 3.85856 10.5952
82 1 15.9994 5.89978 0.596026 9.71866
83 2 1.008 4.9511 0.355998 9.61452
84 2 1.008 8.58622 0.137685 2.57947
85 1 15.9994 8.94142 8.77027 1.48294
86 2 1.008 7.94939 8.23464 6.09984
87 2 1.008 7.84015 3.4691 4.80906
88 1 15.9994 8.78747 7.80618 6.25265
89 2 1.008 8.32937 2.68821 7.67517
90 2 1.008 9.06294 2.51728 7.63237
91 1 15.9994 8.46698 5.09366 6.30641
92 2 1.008 9.34887 4.65472 6.28304
93 2 1.008 8.45322 6.06614 6.33663
94 1 15.9994 6.40671 0.358088 6.66818
95 2 1.008 5.73329 8.85768 4.87299
96 2 1.008 6.53248 0.235185 7.64434
ITEM: TIMESTEP
150
ITEM: NUMBER OF ATOMS
96
ITEM: BOX BOUNDS xy xz yz pp pp pp
0.0000000000000000e+00 9.8561592306680001e+00 0.0000000000000000e+00
0.0000000000000000e+00 9.2649209701160000e+00 0.0000000000000000e+00
0.0000000000000000e+00 1.1385299895347000e+01 0.0000000000000000e+00
ITEM: ATOMS id type mass x y z
1 1 15.9994 1.83298 9.00261 1.56794
2 2 1.008 1.6643 0.65984 1.86626
3 2 1.008 0.0686872 8.73432 1.5073
4 1 15.9994 3.45058 3.07094 11.1243
5 2 1.008 3.81784 4.37786 0.437095
6 2 1.008 3.76199 3.13449 10.187
7 1 15.9994 3.96749 5.26412 0.932279
8 2 1.008 4.12124 3.04813 2.88891
9 2 1.008 3.20138 5.36311 1.51815
10 1 15.9994 3.37196 3.05029 3.48861
11 2 1.008 2.47431 4.78547 3.51107
12 2 1.008 3.62367 4.00552 5.00871
13 1 15.9994 0.971621 7.89717 4.27642
14 2 1.008 0.772435 8.28858 3.38662
15 2 1.008 2.97767 9.05249 3.57319
16 1 15.9994 1.91226 5.44001 3.07169
17 2 1.008 1.77806 6.18541 3.64096
18 2 1.008 1.04536 3.70097 4.95221
19 1 15.9994 2.71207 0.650437 10.5473
20 2 1.008 3.01454 1.59681 10.8056
21 2 1.008 4.72558 6.80613 1.62745
22 1 15.9994 3.47773 0.432483 4.07296
23 2 1.008 3.42585 0.0688284 4.98852
24 2 1.008 3.33421 2.11184 3.80306
25 1 15.9994 1.09155 3.77165 5.8947
26 2 1.008 0.767038 1.43992 6.17726
27 2 1.008 2.00382 3.99438 6.07371
28 1 15.9994 1.01858 2.20896 2.04242
29 2 1.008 0.941085 2.7764 1.24622
30 2 1.008 1.74078 2.63394 2.49002
31 1 15.9994 1.19807 4.25491 11.2689
32 2 1.008 1.31941 5.17202 11.0319
33 2 1.008 2.11561 3.82392 11.1738
34 1 15.9994 1.92305 0.849213 9.38196
35 2 1.008 0.991963 0.89 9.69981
36 2 1.008 2.14325 9.12753 0.63038
37 1 15.9994 4.59877 7.67518 2.02712
38 2 1.008 3.68714 7.92028 1.84588
39 2 1.008 5.85444 0.010767 1.24885
40 1 15.9994 3.50286 8.83436 6.49713
41 2 1.008 2.70936 -0.0456719 6.91297
42 2 1.008 4.32954 -0.101798 6.89136
43 1 15.9994 3.7496 4.60618 5.77453
44 2 1.008 5.22902 3.49363 6.55835
45 2 1.008 4.2852 5.30983 5.38221
46 1 15.9994 1.01728 0.52094 6.22327
47 2 1.008 1.05595 8.69381 4.87985
48 2 1.008 0.267066 0.0148903 6.61854
49 1 15.9994 6.25043 0.761789 0.87719
50 2 1.008 5.93179 1.58228 1.29136
51 2 1.008 6.00309 0.786634 10.674
52 1 15.9994 8.53474 3.74819 11.2292
53 2 1.008 8.76356 1.93124 10.8702
54 2 1.008 9.40978 3.96338 10.8991
55 1 15.9994 9.09708 5.07308 2.31123
56 2 1.008 0.168723 5.05315 2.44689
57 2 1.008 8.93861 4.6608 1.41601
58 1 15.9994 7.92665 3.26785 3.86874
59 2 1.008 8.49931 3.96689 3.45347
60 2 1.008 6.5282 5.22099 4.96021
61 1 15.9994 6.16666 8.58375 4.02147
62 2 1.008 5.40727 8.41514 3.35897
63 2 1.008 7.35041 0.225035 3.75247
64 1 15.9994 5.83424 5.63988 4.39266
65 2 1.008 6.61562 3.5444 2.53574
66 2 1.008 6.16884 6.5271 4.17046
67 1 15.9994 8.96457 1.00754 10.5725
68 2 1.008 8.22914 0.736729 10.0185
69 2 1.008 8.69973 0.0580574 0.715137
70 1 15.9994 8.25816 0.62111 3.57715
71 2 1.008 9.27512 7.78056 5.44171
72 2 1.008 8.20426 1.60928 3.54125
73 1 15.9994 6.12575 3.1119 6.56862
74 2 1.008 6.41912 1.3057 6.51888
75 2 1.008 6.71668 3.77298 6.94665
76 1 15.9994 5.81533 3.35707 1.98897
77 2 1.008 5.39425 4.204 1.70921
78 2 1.008 5.71681 3.17565 10.9035
79 1 15.9994 6.05907 3.38949 10.005
80 2 1.008 6.12826 2.47972 9.6547
81 2 1.008 7.87791 3.91368 10.5748
82 1 15.9994 5.8675 0.593307 9.70736
83 2 1.008 4.93201 0.348712 9.72432
84 2 1.008 8.59566 0.151029 2.65081
85 1 15.9994 8.93264 8.77646 1.5267
86 2 1.008 7.97518 8.29894 6.13177
87 2 1.008 7.89435 3.41446 4.81526
88 1 15.9994 8.79694 7.76455 6.26751
89 2 1.008 8.35403 2.64078 7.70184
90 2 1.008 9.08891 2.62273 7.60533
91 1 15.9994 8.4699 5.12453 6.30589
92 2 1.008 9.33594 4.72626 6.32215
93 2 1.008 8.61816 6.09297 6.39327
94 1 15.9994 6.41782 0.33424 6.65368
95 2 1.008 5.78458 8.77452 4.88129
96 2 1.008 6.57776 0.23616 7.58961
ITEM: TIMESTEP
160
ITEM: NUMBER OF ATOMS
96
ITEM: BOX BOUNDS xy xz yz pp pp pp
0.0000000000000000e+00 9.8561592306680001e+00 0.0000000000000000e+00
0.0000000000000000e+00 9.2649209701160000e+00 0.0000000000000000e+00
0.0000000000000000e+00 1.1385299895347000e+01 0.0000000000000000e+00
ITEM: ATOMS id type mass x y z
1 1 15.9994 1.84356 8.99235 1.57871
2 2 1.008 1.60634 0.616594 1.91717
3 2 1.008 0.033815 8.64952 1.5095
4 1 15.9994 3.43233 3.04776 11.1095
5 2 1.008 3.82976 4.38267 0.439277
6 2 1.008 3.66925 3.17498 10.1913
7 1 15.9994 3.97828 5.25653 0.898305
8 2 1.008 4.16446 3.04605 2.88353
9 2 1.008 3.22122 5.25415 1.51979
10 1 15.9994 3.38305 3.07748 3.51921
11 2 1.008 2.46334 4.83234 3.58131
12 2 1.008 3.64885 3.99422 5.01844
13 1 15.9994 0.951718 7.89938 4.26764
14 2 1.008 0.761615 8.30562 3.41662
15 2 1.008 2.91325 9.08378 3.5362
16 1 15.9994 1.9148 5.45606 3.06133
17 2 1.008 1.82065 6.27244 3.60753
18 2 1.008 1.1239 3.71396 4.92808
19 1 15.9994 2.71731 0.664737 10.5646
20 2 1.008 2.93748 1.59414 10.8691
21 2 1.008 4.8333 6.79651 1.58466
22 1 15.9994 3.48313 0.429793 4.07013
23 2 1.008 3.39227 0.0513649 5.00344
24 2 1.008 3.35322 2.11816 3.80777
25 1 15.9994 1.09645 3.78763 5.90207
26 2 1.008 0.741468 1.46078 6.19913
27 2 1.008 2.0453 4.00675 6.07676
28 1 15.9994 1.01705 2.18576 2.03536
29 2 1.008 0.912343 2.78615 1.2893
30 2 1.008 1.74312 2.61026 2.57196
31 1 15.9994 1.21453 4.27036 11.2705
32 2 1.008 1.31238 5.19199 10.9834
33 2 1.008 2.07534 3.69563 11.0686
34 1 15.9994 1.90999 0.879356 9.37398
35 2 1.008 0.989879 0.937482 9.69998
36 2 1.008 2.04249 9.05687 0.651368
37 1 15.9994 4.6148 7.66039 2.04304
38 2 1.008 3.6729 7.828 1.85364
39 2 1.008 5.8336 -0.040341 1.308
40 1 15.9994 3.48355 8.7982 6.48925
41 2 1.008 2.74345 -0.0663138 6.96598
42 2 1.008 4.29296 -0.0810525 6.88429
43 1 15.9994 3.73417 4.61015 5.78392
44 2 1.008 5.21405 3.41696 6.6152
45 2 1.008 4.35651 5.26444 5.3774
46 1 15.9994 1.00795 0.506561 6.2395
47 2 1.008 1.15174 8.64272 4.83428
48 2 1.008 0.198054 0.0312464 6.52382
49 1 15.9994 6.26224 0.75929 0.861101
50 2 1.008 6.00114 1.55853 1.36071
51 2 1.008 6.07975 0.718692 10.6405
52 1 15.9994 8.5116 3.75838 11.217
53 2 1.008 8.73639 1.93579 10.7947
54 2 1.008 9.43309 3.98953 10.9067
55 1 15.9994 9.11067 5.07713 2.29789
56 2 1.008 0.253748 5.04936 2.37396
57 2 1.008 8.92425 4.74395 1.42036
58 1 15.9994 7.93216 3.28289 3.88816
59 2 1.008 8.40707 4.03105 3.42303
60 2 1.008 6.541 5.24081 4.97195
61 1 15.9994 6.15458 8.57654 4.01425
62 2 1.008 5.481 8.3635 3.38002
63 2 1.008 7.32152 0.246806 3.81087
64 1 15.9994 5.84462 5.64571 4.41228
65 2 1.008 6.55692 3.60676 2.5555
66 2 1.008 6.16838 6.49138 4.13565
67 1 15.9994 8.95995 1.006 10.5769
68 2 1.008 8.20064 0.749339 10.0023
69 2 1.008 8.67306 0.0346146 0.793197
70 1 15.9994 8.25769 0.653667 3.59209
71 2 1.008 9.3144 7.67989 5.42568
72 2 1.008 8.24396 1.6468 3.54054
73 1 15.9994 6.1317 3.10858 6.55813
74 2 1.008 6.43804 1.28618 6.59729
75 2 1.008 6.65532 3.80204 6.99006
76 1 15.9994 5.83583 3.36063 1.94877
77 2 1.008 5.40194 4.19277 1.7341
78 2 1.008 5.7547 3.22382 10.8854
79 1 15.9994 6.06699 3.37697 9.97401
80 2 1.008 6.04052 2.47832 9.60337
81 2 1.008 7.8122 3.98171 10.5274
82 1 15.9994 5.8386 0.59807 9.69449
83 2 1.008 4.91041 0.347107 9.74023
84 2 1.008 8.56749 0.198567 2.65428
85 1 15.9994 8.92333 8.78333 1.56995
86 2 1.008 8.06196 8.3339 6.17296
87 2 1.008 7.91353 3.44879 4.83225
88 1 15.9994 8.79794 7.73549 6.28103
89 2 1.008 8.39774 2.56457 7.7595
90 2 1.008 9.10037 2.73348 7.57266
91 1 15.9994 8.46636 5.14874 6.30982
92 2 1.008 9.40453 4.78192 6.33297
93 2 1.008 8.73065 6.05749 6.44204
94 1 15.9994 6.42609 0.30694 6.63956
95 2 1.008 5.79667 8.69608 4.90565
96 2 1.008 6.60382 0.187266 7.59211
ITEM: TIMESTEP
170
ITEM: NUMBER OF ATOMS
96
ITEM: BOX BOUNDS xy xz yz pp pp pp