384
Lattice="15.6456775311 0 0  0.0000000000 14.7071452944 0  0.0000000000 0.0000000000 18.0730370308" Properties=species:S:1:pos:R:3 step=103
O  1.31502000  1.79339000  3.32885000
H  1.28344000  2.77627000  3.34088000
H  0.38459800  1.47596000  3.34104000
O  5.28368000  4.57635000  1.10392000
H  5.74401000  4.93057000  1.89758000
H  5.77973000  4.89564000  0.31765000
O  6.52453000  5.51540000  3.38119000
H  6.06445000  5.19974000  4.19006000
H  6.50802000  6.49853000  3.41113000
O  5.23738000  4.55829000  5.64275000
H  4.31208000  4.88895000  5.67095000
H  5.68407000  4.90375000  6.44775000
O  2.62645000  0.87430800  5.58710000
H  2.19011000  1.21344000  4.77441000
H  3.54562000  1.22241000  5.58224000
O  2.62016000  5.46810000  5.62786000
H  2.61381000  6.45105000  5.65689000
H  2.16266000  5.15958000  6.44130000
O  5.26147000  1.80446000  1.11010000
H  5.29096000  2.78684000  1.12880000
H  5.72043000  1.49495000  1.92258000
O  5.24167000  1.78981000  5.62711000
H  5.68937000  1.47216000  6.44276000
H  5.26031000  2.77238000  5.66051000
O  1.34020000  4.52772000  7.89558000
H  1.34619000  3.54499000  7.90454000
H  1.80769000  4.81767000  8.71109000
O  1.33545000  4.55089000  3.35662000
H  1.83806000  4.88241000  2.57885000
H  1.79930000  4.88862000  4.15542000
O  2.66719000  5.44400000  1.11204000
H  2.66376000  6.42740000  1.09735000
H  3.61077000  5.16567000  1.10137000
O  2.65153000  0.87599500  1.10292000
H  2.19467000  1.22533000  1.90146000
H  3.57044000  1.22322000  1.13075000
O  6.54241000  0.86814500  3.37553000
H  6.07772000  1.16365000  4.19059000
H  8.20609000  1.49765000  3.35045000
O  6.52381000  0.84132800  7.88752000
H  6.06570000  1.15334000  8.70019000
H  8.21579000  1.40615000  7.83559000
O  6.56780000  5.48151000  7.89181000
H  7.49771000  5.16374000  7.86308000
H  6.60452000  6.46424000  7.87803000
O  1.31453000  1.76001000  7.86379000
H  1.74662000  1.43775000  7.04252000
H  0.39035000  1.42416000  7.85405000
O  9.13574000  1.81809000  3.32733000
H  9.09507000  2.80036000  3.32607000
H  9.95838000  1.22989000  1.85945000
O  13.06450000  4.51224000  1.07329000
H  13.08540000  3.52938000  1.05581000
H  13.53640000  4.82323000  0.26848500
O  14.36510000  5.43686000  3.33127000
H  15.29230000  5.10917000  3.31282000
H  13.93030000  5.09638000  2.51782000
O  13.07040000  4.53787000  5.59885000
H  13.50920000  4.86725000  4.78252000
H  12.14680000  4.87358000  5.57464000
O  10.44770000  0.88171700  5.56677000
H  10.01140000  1.24264000  4.76230000
H  11.37220000  1.21401000  5.56357000
O  10.45720000  5.44997000  5.58489000
H  9.98450000  5.17314000  4.76802000
H  10.44890000  6.43310000  5.59324000
O  13.07130000  1.74707000  1.09994000
H  12.14000000  1.43008000  1.12042000
H  13.50180000  1.41165000  1.91792000
O  13.07540000  1.77455000  5.62182000
H  13.52280000  1.47060000  6.44245000
H  13.09130000  2.75747000  5.63776000
O  9.16654000  4.51791000  7.83906000
H  9.16146000  3.53557000  7.81412000
H  9.62538000  4.81880000  7.02248000
O  9.13122000  4.58345000  3.32739000
H  8.21565000  4.93972000  3.31981000
H  9.57065000  4.89492000  2.50436000
O  10.45770000  5.42208000  1.05850000
H  10.03160000  5.08319000  0.23901900
H  11.38010000  5.07956000  1.05141000
O  10.45350000  0.88024200  1.08545000
H  9.98636000  1.20702000  0.28428500
H  13.90680000  1.14655000  4.18097000
O  14.36330000  0.83913600  3.36571000
H  13.88310000  1.17768000  8.70733000
H  13.94170000  5.11066000  7.04583000
O  14.34840000  0.85643700  7.90259000
H  13.02870000  2.79935000  10.12910000
H  12.09880000  1.52466000  10.13940000
O  14.38370000  5.44788000  7.85630000
H  15.30620000  5.10685000  7.84316000
H  14.34530000  7.22527000  7.83946000
O  9.13831000  1.74542000  7.85099000
H  9.57696000  1.41705000  7.03531000
H  9.96013000  1.20239000  9.33855000
O  1.34550000  9.13132000  3.36308000
H  1.81176000  8.83197000  4.17588000
H  1.34955000  10.11400000  3.39090000
O  5.21632000  11.87500000  1.11177000
H  5.18487000  10.89260000  1.09654000
H  4.28319000  12.18580000  1.12344000
O  6.56129000  12.80610000  3.35314000
H  7.48000000  12.45730000  3.31909000
H  6.10030000  12.45940000  2.55746000
O  5.24799000  11.93440000  5.62699000
H  5.73940000  12.24740000  6.41918000
H  5.73775000  12.25980000  4.83920000
O  2.64041000  8.23515000  5.63171000
H  3.56203000  8.57924000  5.65484000
H  2.19416000  8.56360000  6.44340000
O  2.63138000  12.81960000  5.63664000
H  2.65155000  13.80270000  5.62086000
H  3.57013000  12.52710000  5.62929000
O  5.22793000  9.11003000  1.07750000
H  4.30662000  8.76994000  1.05477000
H  5.67754000  8.76940000  0.27171200
O  5.23803000  9.17113000  5.62454000
H  5.70058000  8.87745000  4.80740000
H  5.25060000  10.15450000  5.60710000
O  1.31467000  11.87770000  7.88435000
H  1.32936000  10.89510000  7.85761000
H  1.78848000  12.19140000  7.08252000
O  1.32574000  11.90250000  3.38147000
H  0.39532600  12.21950000  3.40981000
H  1.76845000  12.24440000  4.19045000
O  2.61531000  12.81560000  1.12360000
H  2.62777000  13.79840000  1.14614000
H  2.15095000  12.52240000  1.94011000
O  2.60877000  8.20088000  1.08473000
H  2.12848000  8.54936000  0.30126700
H  2.14704000  8.54809000  1.88015000
O  6.53436000  8.27192000  3.36741000
H  7.46699000  8.58388000  3.33529000
H  6.09691000  8.58496000  2.54487000
O  6.57395000  8.24611000  7.86331000
H  6.13409000  8.58508000  7.05216000
H  7.49489000  8.59312000  7.85277000
O  6.56112000  12.77890000  7.90290000
H  6.11268000  12.44460000  8.71131000
H  7.48877000  12.45630000  7.93721000
O  1.32134000  9.12003000  7.89723000
H  0.39913400  8.78157000  7.91448000
H  1.77007000  8.77198000  8.70013000
O  9.16314000  9.10597000  3.35285000
H  9.64711000  8.74632000  2.57443000
H  9.63566000  8.78199000  4.15115000
O  13.03160000  11.84850000  1.12635000
H  13.00280000  10.86570000  1.12310000
H  12.10050000  12.16370000  1.10330000
O  14.34900000  12.77690000  3.37663000
H  13.86510000  12.45640000  4.17043000
H  13.86290000  12.43280000  2.59431000
O  13.04090000  11.90540000  5.64703000
H  12.12050000  12.25040000  5.66146000
H  13.48130000  12.23160000  6.46288000
O  10.46780000  8.21382000  5.63391000
H  11.39060000  8.55468000  5.64155000
H  10.03570000  8.55890000  6.44576000
O  10.43260000  12.83020000  5.61503000
H  9.98464000  12.50080000  4.80437000
H  10.42050000  13.81200000  5.56073000
O  13.05300000  9.08379000  1.10211000
H  13.53830000  8.77206000  0.30480700
H  13.55260000  8.75564000  1.88307000
O  13.07110000  9.13660000  5.60416000
H  13.54480000  8.83483000  4.79717000
H  13.07650000  10.11910000  5.58920000
O  9.19036000  11.91180000  7.90795000
H  9.64666000  12.25860000  7.10915000
H  9.66713000  12.26950000  8.68930000
O  9.16343000  11.87460000  3.34075000
H  9.18872000  10.89200000  3.32209000
H  9.62466000  12.18340000  2.52929000
O  10.44270000  12.80930000  1.06952000
H  9.96201000  12.51510000  0.26290300
H  10.43280000  13.79160000  1.05954000
O  10.45490000  8.17905000  1.10972000
H  10.47570000  7.19577000  1.08254000
H  11.39390000  8.47404000  1.10668000
O  14.38580000  8.20574000  3.35319000
H  14.40670000  7.22296000  3.34755000
H  15.32180000  8.50804000  3.36056000
O  14.34740000  8.20761000  7.88379000
H  13.89860000  8.52438000  7.06877000
H  13.52460000  8.77178000  9.35439000
O  14.34640000  12.79650000  7.92239000
H  13.90930000  12.44240000  8.72900000
H  15.26900000  12.45840000  7.92886000
O  9.17376000  9.15388000  7.90065000
H  9.20437000  10.13650000  7.92833000
H  9.63350000  8.83633000  8.70958000
O  1.33767000  1.74695000  12.38990000
H  1.77363000  1.41159000  11.57590000
H  0.40506500  1.43416000  12.35920000
O  5.27076000  4.54238000  10.14230000
H  5.73862000  4.88356000  10.93720000
H  5.75358000  4.89285000  9.36062000
O  6.54293000  5.47060000  12.41460000
H  6.07092000  5.15205000  13.21590000
H  6.51703000  6.45307000  12.44100000
O  5.23915000  4.52243000  14.66400000
H  5.21105000  3.53962000  14.66870000
H  4.30567000  4.82901000  14.68540000
O  2.63413000  0.86909600  14.66790000
H  2.14116000  1.20342000  15.45180000
H  2.15373000  1.18677000  13.87150000
O  2.62464000  5.44131000  14.69530000
H  2.60340000  6.42368000  14.69890000
H  2.16254000  5.14285000  15.51020000
O  5.23204000  1.77756000  10.14570000
H  4.29453000  1.48034000  10.12820000
H  5.22089000  2.76058000  10.13830000
O  5.23879000  1.75534000  14.66860000
H  5.67982000  1.41675000  15.47950000
H  4.31260000  1.42279000  14.69250000
O  1.33249000  4.51765000  16.95550000
H  1.33080000  3.53465000  16.96850000
H  1.81202000  4.81062000  17.76300000
O  1.37062000  4.50452000  12.41920000
H  1.37868000  3.52117000  12.43270000
H  1.81802000  4.80673000  13.24110000
O  2.65127000  5.42075000  10.15280000
H  2.22577000  5.08542000  10.97360000
H  3.58035000  5.09860000  10.16750000
O  2.63376000  0.85184500  10.11240000
H  2.16037000  1.14572000  9.30205000
H  6.04974000  1.20974000  11.61850000
O  6.54217000  0.88027100  12.40350000
H  6.06016000  1.20776000  13.19660000
H  8.19929000  1.49076000  12.39610000
O  6.55113000  0.84522100  16.92640000
H  6.09899000  1.16828000  17.73760000
H  8.23948000  1.41095000  16.86560000
O  6.59567000  5.44438000  16.89810000
H  6.12917000  5.10201000  16.10350000
H  7.51562000  5.09812000  16.85360000
O  1.31930000  1.74802000  16.91850000
H  0.40176100  1.39394000  16.95470000
H  1.77984000  1.41732000  17.72240000
O  9.13741000  1.79018000  12.39120000
H  9.11529000  2.77296000  12.39500000
H  9.94979000  1.24148000  10.91710000
O  13.06980000  4.58343000  10.12580000
H  13.56320000  4.90197000  10.91400000
H  13.55590000  4.90731000  9.33491000
O  14.41360000  5.43054000  12.39540000
H  15.33330000  5.08226000  12.41830000
H  13.96860000  5.08083000  13.19930000
O  13.09940000  4.49915000  14.64440000
H  13.55830000  4.81903000  15.45280000
H  13.10120000  3.51659000  14.69030000
O  10.47000000  0.82930600  14.61930000
H  9.99793000  1.15169000  13.81920000
H  9.59953000  1.39895000  16.06500000
O  10.50190000  5.44310000  14.62300000
H  10.05510000  5.12564000  13.80650000
H  11.41970000  5.09002000  14.60380000
O  13.03880000  1.81652000  10.14210000
H  13.86850000  1.24902000  11.60530000
H  13.89320000  1.20426000  13.18230000
O  13.07530000  1.73796000  14.67420000
H  13.51150000  1.38646000  15.48190000
H  12.15280000  1.39578000  14.67990000
O  9.18980000  4.51450000  16.86110000
H  9.19158000  3.53113000  16.83390000
H  9.66083000  4.81872000  16.05250000
O  9.15698000  4.55915000  12.37990000
H  8.23796000  4.90759000  12.38030000
H  9.58170000  4.87872000  11.55240000
O  10.44380000  5.43649000  10.10340000
H  10.02260000  5.09003000  9.28505000
H  11.37610000  5.12377000  10.09490000
O  10.44500000  0.89928600  10.13850000
H  10.46630000  7.21743000  10.13240000
H  11.39500000  8.48908000  10.16110000
O  14.36440000  0.89399400  12.37690000
H  13.90240000  1.12064000  17.74290000
H  15.31890000  5.14968000  16.92760000
O  14.37460000  0.81216200  16.93640000
H  14.40230000  6.43270000  16.89900000
H  13.92560000  8.56414000  16.09260000
O  14.38240000  5.45028000  16.90700000
H  15.28710000  8.57421000  16.87900000
H  13.55260000  8.82602000  13.82580000
O  9.16204000  1.75237000  16.87150000
H  6.59886000  7.22120000  16.89790000
H  10.51000000  7.22518000  14.65960000
O  1.35378000  9.13573000  12.37250000
H  1.82905000  8.83570000  11.56570000
H  1.35095000  10.11870000  12.35650000
O  5.23634000  11.88740000  10.15980000
H  5.66347000  12.23390000  10.97480000
H  4.30954000  12.21670000  10.16820000
O  6.51436000  12.81550000  12.42590000
H  6.03818000  12.51670000  13.23330000
H  6.51299000  13.79830000  12.44260000
O  5.19919000  11.89150000  14.67060000
H  5.18464000  10.90880000  14.66460000
H  4.26129000  12.18980000  14.67480000
O  2.61877000  8.21511000  14.65350000
H  2.19246000  8.55197000  13.83430000
H  3.54830000  8.53565000  14.63630000
O  2.60469000  12.81020000  14.67590000
H  2.60444000  13.79330000  14.69110000
H  2.13657000  12.52030000  15.49180000
O  5.25904000  9.12595000  10.12090000
H  5.25688000  10.10950000  10.11620000
H  5.73215000  8.84241000  9.30624000
O  5.22834000  9.12281000  14.66380000
H  5.71889000  8.78368000  15.44560000
H  5.71099000  8.80176000  13.86950000
O  1.32051000  11.91370000  16.93470000
H  1.75500000  12.25080000  17.75020000
H  0.38630600  12.22070000  16.96380000
O  1.32030000  11.90050000  12.40520000
H  0.39959200  12.24660000  12.41990000
H  1.75602000  12.23420000  13.22100000
O  2.62698000  12.79120000  10.14110000
H  2.14078000  12.47350000  10.93470000
H  2.14648000  12.44490000  9.35639000
O  2.65951000  8.19303000  10.12750000
H  2.68440000  7.21073000  10.14750000
H  3.59460000  8.49859000  10.11630000
O  6.53451000  8.23019000  12.40240000
H  7.46445000  8.54958000  12.38090000
H  6.10407000  8.56107000  11.58250000
O  6.55884000  8.20410000  16.90630000
H  7.49161000  8.51650000  16.91280000
H  9.63842000  8.78378000  17.71060000
O  6.51127000  12.78830000  16.92830000
H  6.02198000  12.46050000  16.14040000
H  6.02879000  12.44820000  17.71550000
O  1.31911000  9.15057000  16.89980000
H  1.78921000  8.85065000  16.08970000
H  1.34128000  10.13360000  16.89160000
O  9.14999000  9.11282000  12.40770000
H  9.63744000  8.76712000  11.62550000
H  9.62808000  8.78241000  13.20020000
O  13.04540000  11.86520000  10.17210000
H  13.01500000  10.88250000  10.17120000
H  12.11450000  12.18240000  10.18110000
O  14.37100000  12.83510000  12.39180000
H  13.89510000  12.50710000  11.59610000
H  14.35060000  13.81710000  12.34870000
O  13.05430000  11.91140000  14.64640000
H  13.49950000  12.26950000  13.84670000
H  12.12450000  12.23000000  14.61530000
O  10.47180000  8.20782000  14.67640000
H  11.40310000  8.52267000  14.65160000
H  9.64986000  8.78438000  16.13570000
O  10.42790000  12.78070000  14.63060000
H  9.94002000  12.43430000  13.84910000
H  9.94441000  12.45700000  15.42330000
O  13.05620000  9.09947000  10.15490000
H  13.55620000  8.76035000  10.93110000
H  15.33350000  8.50582000  12.38360000
O  13.07920000  9.13723000  14.62980000
H  13.08170000  10.11940000  14.59680000
H  14.43250000  7.21185000  12.40860000
O  9.11893000  11.89120000  16.89970000
H  8.17789000  12.17790000  16.90920000
H  9.11347000  10.90800000  16.91060000
O  9.10732000  11.87650000  12.38950000
H  8.17091000  12.17730000  12.40380000
H  9.09391000  10.89330000  12.38460000
O  10.46640000  12.83920000  10.18050000
H  10.44840000  13.82210000  10.20170000
H  9.96840000  12.52800000  10.96890000
O  10.45420000  8.20018000  10.16410000
H  6.51887000  14.56650000  7.92253000
H  10.43800000  14.55350000  14.58940000
O  14.40060000  8.19464000  12.38950000
H  13.86260000  12.44210000  16.14570000
H  13.85240000  12.40900000  17.72470000
O  14.36710000  8.22642000  16.90360000
H  14.34790000  14.53630000  16.96050000
H  6.51867000  14.56980000  16.95830000
O  14.34020000  12.75790000  16.94520000
H  14.33320000  14.58160000  7.94309000
H  14.34510000  14.56360000  3.38726000
O  9.16252000  9.12427000  16.92080000
H  2.62251000  14.57600000  10.09850000
H  6.53687000  14.59250000  3.38308000
384
Lattice="15.6456775311 0 0  0.0000000000 14.7071452944 0  0.0000000000 0.0000000000 18.0730370308" Properties=species:S:1:pos:R:3 step=104
O  1.31658000  1.78855000  3.33440000
H  1.27671000  2.78548000  3.32012000
H  0.39938100  1.47096000  3.33160000
O  5.28617000  4.57598000  1.11164000
H  5.75059000  4.94077000  1.90752000
H  5.78448000  4.89445000  0.31928300
O  6.52590000  5.51793000  3.37769000
H  6.06009000  5.21963000  4.20301000
H  6.50106000  6.51116000  3.38537000
O  5.24008000  4.55904000  5.64490000
H  4.33833000  4.89310000  5.67032000
H  5.70308000  4.89693000  6.44884000
O  2.62250000  0.87862500  5.58514000
H  2.19306000  1.20476000  4.75177000
H  3.52797000  1.21706000  5.58064000
O  2.62262000  5.47051000  5.62506000
H  2.60579000  6.44194000  5.65472000
H  2.14946000  5.16038000  6.46246000
O  5.25929000  1.80129000  1.11609000
H  5.28131000  2.80987000  1.13314000
H  5.70881000  1.48964000  1.93856000
O  5.24205000  1.79039000  5.62694000
H  5.70005000  1.47037000  6.45976000
H  5.25925000  2.76723000  5.65598000
O  1.34771000  4.53231000  7.89825000
H  1.34928000  3.55516000  7.90074000
H  1.79666000  4.83269000  8.72561000
O  1.33890000  4.54344000  3.35806000
H  1.84425000  4.87121000  2.56981000
H  1.77546000  4.88954000  4.15493000
O  2.66466000  5.43979000  1.11802000
H  2.65351000  6.41806000  1.09901000
H  3.61240000  5.18941000  1.07238000
O  2.64953000  0.87738100  1.10273000
H  2.19068000  1.21662000  1.89469000
H  3.54418000  1.23028000  1.12095000
O  6.54295000  0.86237600  3.37967000
H  6.08916000  1.15184000  4.20173000
H  8.23122000  1.52060000  3.34741000
O  6.51810000  0.83911400  7.88487000
H  6.05557000  1.17088000  8.68454000
H  8.22911000  1.39388000  7.84886000
O  6.56720000  5.49004000  7.89339000
H  7.49727000  5.16916000  7.86037000
H  6.60435000  6.47992000  7.90235000
O  1.31132000  1.75373000  7.86085000
H  1.74191000  1.44580000  7.03624000
H  0.38111900  1.41233000  7.87373000
O  9.13671000  1.81585000  3.32225000
H  9.08123000  2.79660000  3.31574000
H  9.95840000  1.20618000  1.86079000
O  13.06530000  4.51689000  1.06815000
H  13.08760000  3.51401000  1.06707000
H  13.52010000  4.82455000  0.26651000
O  14.37440000  5.43847000  3.33170000
H  15.27310000  5.11345000  3.31397000
H  13.92340000  5.07627000  2.51050000
O  13.07040000  4.54548000  5.60003000
H  13.48850000  4.87299000  4.77110000
H  12.16910000  4.86282000  5.59209000
O  10.45100000  0.88778100  5.56316000
H  9.99499000  1.25600000  4.75050000
H  11.38330000  1.20929000  5.57064000
O  10.45060000  5.45202000  5.58514000
H  10.00490000  5.19288000  4.78297000
H  10.44870000  6.41961000  5.60161000
O  13.07400000  1.74812000  1.10267000
H  12.13220000  1.40721000  1.11738000
H  13.49320000  1.39730000  1.89384000
O  13.07390000  1.77764000  5.62818000
H  13.50840000  1.46537000  6.43386000
H  13.09190000  2.76321000  5.66998000
O  9.16361000  4.51543000  7.83561000
H  9.14146000  3.51959000  7.79827000
H  9.63159000  4.79057000  7.05022000
O  9.13278000  4.58223000  3.32279000
H  8.21548000  4.94271000  3.29953000
H  9.57601000  4.87774000  2.52651000
O  10.45030000  5.41993000  1.05478000
H  10.03050000  5.08414000  0.22305800
H  11.39270000  5.07416000  1.06951000
O  10.44630000  0.88051500  1.08683000
H  10.00180000  1.20708000  0.27909200
H  13.89950000  1.14224000  4.19305000
O  14.36160000  0.83818100  3.37499000
H  13.86680000  1.17142000  8.70699000
H  13.92750000  5.12040000  7.03816000
O  14.35130000  0.85462900  7.90212000
H  13.02180000  2.82230000  10.12300000
H  12.09380000  1.54488000  10.12330000
O  14.38840000  5.45567000  7.85840000
H  15.31000000  5.11200000  7.83708000
H  14.31620000  7.23307000  7.83561000
O  9.13859000  1.74166000  7.85210000
H  9.57224000  1.42348000  7.02831000
H  9.94713000  1.19085000  9.31670000
O  1.34875000  9.13187000  3.37248000
H  1.80529000  8.80042000  4.17276000
H  1.35037000  10.12180000  3.37809000
O  5.22139000  11.87620000  1.11371000
H  5.16865000  10.90120000  1.07778000
H  4.28290000  12.17490000  1.14061000
O  6.55925000  12.80640000  3.35218000
H  7.48493000  12.45820000  3.31534000
H  6.07594000  12.44010000  2.55506000
O  5.24593000  11.92700000  5.62911000
H  5.72828000  12.22330000  6.40283000
H  5.73067000  12.27530000  4.84798000
O  2.64094000  8.23454000  5.62724000
H  3.58472000  8.57035000  5.66353000
H  2.19309000  8.57557000  6.45470000
O  2.62833000  12.81710000  5.63752000
H  2.65021000  13.80920000  5.62298000
H  3.58041000  12.52610000  5.65828000
O  5.22766000  9.11057000  1.08227000
H  4.31231000  8.77337000  1.05451000
H  5.65634000  8.77397000  0.27761100
O  5.24032000  9.16756000  5.62437000
H  5.69108000  8.88731000  4.81507000
H  5.24161000  10.15450000  5.62519000
O  1.30993000  11.87760000  7.88563000
H  1.33006000  10.89900000  7.84610000
H  1.78481000  12.21380000  7.07293000
O  1.32759000  11.90390000  3.37866000
H  0.41565300  12.23140000  3.40609000
H  1.76577000  12.26170000  4.20151000
O  2.61395000  12.81350000  1.11440000
H  2.60742000  13.79520000  1.15566000
H  2.14815000  12.52780000  1.92257000
O  2.61062000  8.20283000  1.08545000
H  2.12292000  8.55500000  0.29499000
H  2.15249000  8.52971000  1.91391000
O  6.53968000  8.27050000  3.36370000
H  7.45965000  8.59101000  3.32672000
H  6.09411000  8.59397000  2.53218000
O  6.56691000  8.25473000  7.86524000
H  6.12318000  8.60140000  7.05341000
H  7.49572000  8.55884000  7.83385000
O  6.56280000  12.78160000  7.90724000
H  6.11434000  12.46960000  8.72008000
H  7.49747000  12.45710000  7.94661000
O  1.32341000  9.11570000  7.89493000
H  0.39821400  8.77054000  7.90609000
H  1.77207000  8.75871000  8.69843000
O  9.16106000  9.10995000  3.34908000
H  9.62608000  8.74260000  2.57787000
H  9.63041000  8.79236000  4.16116000
O  13.03370000  11.84570000  1.11881000
H  13.00790000  10.88570000  1.15674000
H  12.08700000  12.14120000  1.09206000
O  14.35640000  12.77320000  3.37528000
H  13.86670000  12.45300000  4.16033000
H  13.87660000  12.42920000  2.59611000
O  13.03900000  11.90200000  5.64099000
H  12.11820000  12.25280000  5.67438000
H  13.47530000  12.23410000  6.45916000
O  10.46380000  8.21924000  5.63510000
H  11.39620000  8.53454000  5.62156000
H  10.02860000  8.54158000  6.43407000
O  10.43610000  12.83160000  5.61445000
H  9.99060000  12.51290000  4.78190000
H  10.42710000  13.82290000  5.57118000
O  13.05270000  9.08033000  1.09923000
H  13.52910000  8.79047000  0.31177500
H  13.53890000  8.74825000  1.87365000
O  13.07020000  9.13879000  5.60375000
H  13.54180000  8.84863000  4.79017000
H  13.09950000  10.13050000  5.61861000
O  9.18644000  11.90930000  7.90104000
H  9.64113000  12.24020000  7.11729000
H  9.66571000  12.24760000  8.69053000
O  9.15540000  11.87160000  3.34101000
H  9.18014000  10.91410000  3.32645000
H  9.62941000  12.18580000  2.50871000
O  10.44300000  12.80510000  1.06888000
H  9.96081000  12.49690000  0.26586000
H  10.43750000  13.78830000  1.04828000
O  10.45410000  8.17777000  1.11115000
H  10.48210000  7.21745000  1.11122000
H  11.39340000  8.47182000  1.12433000
O  14.37970000  8.20544000  3.35530000
H  14.40000000  7.19505000  3.35044000
H  15.31590000  8.52451000  3.38371000
O  14.34280000  8.21051000  7.88741000
H  13.92730000  8.53781000  7.05381000
H  13.53720000  8.78555000  9.36963000
O  14.34330000  12.80040000  7.92445000
H  13.92750000  12.42070000  8.71879000
H  15.25120000  12.44920000  7.92244000
O  9.16448000  9.15005000  7.89805000
H  9.20532000  10.15750000  7.96163000
H  9.62991000  8.82754000  8.73117000
O  1.33690000  1.74598000  12.39240000
H  1.75061000  1.42605000  11.58290000
H  0.41617000  1.44218000  12.35070000
O  5.27095000  4.54404000  10.14510000
H  5.73008000  4.88294000  10.94720000
H  5.76891000  4.90164000  9.34924000
O  6.54579000  5.47572000  12.40940000
H  6.09101000  5.17028000  13.20490000
H  6.52934000  6.47279000  12.43000000
O  5.23744000  4.51972000  14.66030000
H  5.18885000  3.53160000  14.66010000
H  4.30700000  4.83492000  14.70320000
O  2.63568000  0.86550300  14.66550000
H  2.12945000  1.19639000  15.47650000
H  2.14078000  1.21198000  13.89650000
O  2.63127000  5.43737000  14.69970000
H  2.59528000  6.42037000  14.70490000
H  2.15166000  5.14681000  15.50070000
O  5.23287000  1.77862000  10.14940000
H  4.29202000  1.49070000  10.13170000
H  5.23731000  2.77075000  10.13910000
O  5.24001000  1.75254000  14.67310000
H  5.70660000  1.42612000  15.46790000
H  4.30255000  1.42372000  14.67400000
O  1.33555000  4.51651000  16.95380000
H  1.33337000  3.52726000  16.97680000
H  1.82926000  4.82718000  17.77010000
O  1.37281000  4.50311000  12.41870000
H  1.36897000  3.51264000  12.40160000
H  1.85187000  4.85805000  13.23350000
O  2.64886000  5.42642000  10.14730000
H  2.22022000  5.11117000  10.96520000
H  3.58983000  5.13930000  10.16240000
O  2.63507000  0.85460700  10.11120000
H  2.16079000  1.15382000  9.31036000
H  6.06185000  1.22600000  11.62820000
O  6.54538000  0.88083000  12.39990000
H  6.06166000  1.21548000  13.21950000
H  8.20499000  1.46035000  12.39040000
O  6.55665000  0.84148600  16.92500000
H  6.14396000  1.16771000  17.74710000
H  8.23327000  1.40189000  16.86110000
O  6.59430000  5.44326000  16.89970000
H  6.10868000  5.07778000  16.10760000
H  7.52802000  5.10708000  16.87330000
O  1.32187000  1.75042000  16.92030000
H  0.40027200  1.39800000  16.92660000
H  1.77932000  1.38789000  17.71950000
O  9.13557000  1.79310000  12.39360000
H  9.12098000  2.78740000  12.40040000
H  9.92109000  1.23662000  10.91150000
O  13.06660000  4.58366000  10.11980000
H  13.55670000  4.91872000  10.92140000
H  13.56250000  4.92557000  9.31189000
O  14.41400000  5.43021000  12.39550000
H  15.33490000  5.09293000  12.42460000
H  13.94350000  5.05293000  13.20800000
O  13.09930000  4.50136000  14.64490000
H  13.53550000  4.82813000  15.45190000
H  13.11100000  3.52054000  14.67100000
O  10.47250000  0.82427100  14.62030000
H  10.00820000  1.15734000  13.80760000
H  9.59246000  1.37634000  16.05120000
O  10.50290000  5.43930000  14.62110000
H  10.04720000  5.12226000  13.81010000
H  11.41130000  5.10360000  14.58350000
O  13.04320000  1.81628000  10.14190000
H  13.85220000  1.25231000  11.64390000
H  13.90080000  1.22903000  13.18570000
O  13.07880000  1.73653000  14.67490000
H  13.53110000  1.36334000  15.49580000
H  12.17220000  1.41470000  14.68320000
O  9.18905000  4.51629000  16.86930000
H  9.17392000  3.53496000  16.80730000
H  9.65809000  4.83485000  16.03230000
O  9.16104000  4.55929000  12.38130000
H  8.26240000  4.88304000  12.38090000
H  9.60446000  4.85959000  11.54070000
O  10.44370000  5.43401000  10.10640000
H  10.03720000  5.09368000  9.28443000
H  11.38580000  5.11876000  10.12260000
O  10.44340000  0.89869900  10.13560000
H  10.46190000  7.19933000  10.14230000
H  11.38770000  8.47971000  10.16470000
O  14.36480000  0.89062900  12.37340000
H  13.89710000  1.12228000  17.74840000
H  15.35520000  5.14646000  16.91240000
O  14.37370000  0.81329000  16.93230000
H  14.40560000  6.44051000  16.91350000
H  13.90260000  8.55935000  16.10940000
O  14.38870000  5.45318000  16.90400000
H  15.29060000  8.57047000  16.89150000
H  13.57440000  8.83884000  13.85320000
O  9.15637000  1.75215000  16.86900000
H  6.58495000  7.20807000  16.90160000
H  10.51290000  7.21906000  14.67040000
O  1.35648000  9.13128000  12.37710000
H  1.84191000  8.84166000  11.57010000
H  1.34443000  10.11070000  12.34480000
O  5.23688000  11.87940000  10.15390000
H  5.64898000  12.25540000  10.99490000
H  4.30911000  12.19830000  10.17800000
O  6.51488000  12.81190000  12.42260000
H  6.04064000  12.52560000  13.25830000
H  6.51330000  13.79780000  12.42300000
O  5.19891000  11.89130000  14.66970000
H  5.18653000  10.90430000  14.67130000
H  4.28489000  12.17670000  14.69080000
O  2.61419000  8.20811000  14.65120000
H  2.18711000  8.55226000  13.83730000
H  3.53849000  8.51840000  14.63380000
O  2.60751000  12.80940000  14.67800000
H  2.60402000  13.80050000  14.71470000
H  2.10507000  12.51290000  15.48200000
O  5.26808000  9.12183000  10.12630000
H  5.27017000  10.12800000  10.09710000
H  5.69716000  8.85031000  9.32271000
O  5.22612000  9.12042000  14.65910000
H  5.70682000  8.77642000  15.42910000
H  5.69680000  8.79765000  13.86870000
O  1.32316000  11.91950000  16.93070000
H  1.74238000  12.26540000  17.75300000
H  0.39536100  12.22150000  16.96120000
O  1.32217000  11.90070000  12.40400000
H  0.39140100  12.28730000  12.41710000
H  1.77892000  12.23650000  13.21820000
O  2.63037000  12.79350000  10.14040000
H  2.13926000  12.49220000  10.89910000
H  2.12122000  12.46330000  9.34378000
O  2.65514000  8.18929000  10.12500000
H  2.67655000  7.23116000  10.14560000
H  3.59807000  8.47435000  10.11700000
O  6.53303000  8.23271000  12.40290000
H  7.45528000  8.55933000  12.39760000
H  6.09620000  8.54326000  11.60900000
O  6.55862000  8.20364000  16.90240000
H  7.48577000  8.50210000  16.91810000
H  9.61698000  8.79387000  17.70180000
O  6.51463000  12.79040000  16.92860000
H  6.02880000  12.46090000  16.15420000
H  6.03738000  12.43980000  17.72490000
O  1.31659000  9.14935000  16.90330000
H  1.78166000  8.86106000  16.09530000
H  1.35676000  10.12800000  16.88980000
O  9.15895000  9.11487000  12.40440000
H  9.65569000  8.75974000  11.63900000
H  9.61339000  8.77922000  13.22210000
O  13.04250000  11.86700000  10.17400000
H  13.01260000  10.88890000  10.18370000
H  12.11530000  12.18860000  10.18190000
O  14.36920000  12.84270000  12.39150000
H  13.90120000  12.49040000  11.60010000
H  14.35450000  13.80770000  12.34220000
O  13.05310000  11.91520000  14.64700000
H  13.48020000  12.29350000  13.83210000
H  12.10080000  12.22700000  14.59670000
O  10.47090000  8.19977000  14.67380000
H  11.41840000  8.53078000  14.65070000
H  9.66248000  8.78099000  16.12720000
O  10.42750000  12.78750000  14.63770000
H  9.94022000  12.43950000  13.83560000
H  9.95158000  12.44030000  15.42450000
O  13.05420000  9.10207000  10.15550000
H  13.54070000  8.74605000  10.93300000
H  15.34550000  8.50649000  12.37760000
O  13.07580000  9.13861000  14.62960000
H  13.11230000  10.13190000  14.62270000
H  14.42320000  7.18907000  12.40230000
O  9.11758000  11.89300000  16.90050000
H  8.17856000  12.15840000  16.94660000
H  9.11563000  10.91350000  16.92180000
O  9.10911000  11.87710000  12.39060000
H  8.15836000  12.18630000  12.39700000
H  9.07768000  10.90410000  12.37460000
O  10.46450000  12.83300000  10.17970000
H  10.43380000  13.81710000  10.21770000
H  9.94636000  12.52550000  10.95400000
O  10.45490000  8.19908000  10.16790000
H  6.52894000  14.56450000  7.92357000
H  10.43350000  14.53960000  14.57990000
O  14.40470000  8.19725000  12.39010000
H  13.86220000  12.42490000  16.16810000
H  13.87760000  12.44930000  17.70370000