384
Lattice="15.6456775311 0 0  0.0000000000 14.7071452944 0  0.0000000000 0.0000000000 18.0730370308" Properties=species:S:1:pos:R:3 step=100
O  1.32349000  1.77945000  3.34005000
H  1.27738000  2.77340000  3.28223000
H  0.41084700  1.45936000  3.31309000
O  5.28480000  4.57670000  1.12389000
H  5.74330000  4.95338000  1.92756000
H  5.78509000  4.88249000  0.32476300
O  6.52243000  5.52034000  3.37365000
H  6.05736000  5.24695000  4.21218000
H  6.48654000  6.52239000  3.34826000
O  5.24074000  4.55277000  5.64990000
H  4.35104000  4.90175000  5.66699000
H  5.73003000  4.88130000  6.44844000
O  2.61746000  0.87851700  5.57916000
H  2.19750000  1.18675000  4.71775000
H  3.52226000  1.21286000  5.57202000
O  2.62437000  5.47302000  5.62454000
H  2.58902000  6.44087000  5.65139000
H  2.13667000  5.16425000  6.47550000
O  5.26097000  1.79952000  1.12465000
H  5.25854000  2.82711000  1.13847000
H  5.68992000  1.49153000  1.96498000
O  5.24528000  1.78447000  5.62338000
H  5.70530000  1.46398000  6.47051000
H  5.25437000  2.75324000  5.64840000
O  1.35682000  4.53702000  7.90022000
H  1.35100000  3.56278000  7.88889000
H  1.77316000  4.85193000  8.74670000
O  1.33948000  4.52912000  3.36222000
H  1.84366000  4.84683000  2.55763000
H  1.73361000  4.89026000  4.17340000
O  2.65336000  5.43403000  1.13227000
H  2.61763000  6.40781000  1.10280000
H  3.61430000  5.22178000  1.01883000
O  2.65166000  0.88154700  1.09684000
H  2.18064000  1.20650000  1.88303000
H  3.52806000  1.25545000  1.09485000
O  6.55205000  0.84816200  3.38142000
H  6.11788000  1.12952000  4.21847000
H  8.24906000  1.54162000  3.34746000
O  6.50935000  0.83374300  7.87814000
H  6.04071000  1.18919000  8.66325000
H  8.24122000  1.37099000  7.87367000
O  6.55850000  5.49982000  7.89753000
H  7.48911000  5.17433000  7.85622000
H  6.60635000  6.49246000  7.92996000
O  1.30786000  1.73841000  7.85126000
H  1.73604000  1.44610000  7.02037000
H  0.37627200  1.39086000  7.90627000
O  9.14696000  1.81453000  3.31373000
H  9.06168000  2.78937000  3.30200000
H  9.95251000  1.16916000  1.86886000
O  13.06190000  4.52609000  1.06535000
H  13.08670000  3.50747000  1.08497000
H  13.50410000  4.83628000  0.25576900
O  14.38040000  5.44141000  3.33605000
H  15.27030000  5.09600000  3.32337000
H  13.90570000  5.04525000  2.52310000
O  13.06560000  4.55550000  5.60786000
H  13.44520000  4.88132000  4.76334000
H  12.16780000  4.85217000  5.62787000
O  10.45730000  0.89824700  5.55980000
H  9.98300000  1.26684000  4.75035000
H  11.39970000  1.20034000  5.57456000
O  10.43400000  5.45392000  5.59385000
H  10.01230000  5.21251000  4.78483000
H  10.43710000  6.40758000  5.62551000
O  13.07950000  1.75286000  1.10658000
H  12.13260000  1.37885000  1.10883000
H  13.49850000  1.37065000  1.87158000
O  13.07000000  1.78180000  5.63644000
H  13.50150000  1.45265000  6.43336000
H  13.09240000  2.76481000  5.72344000
O  9.15132000  4.50670000  7.83542000
H  9.10271000  3.50514000  7.77574000
H  9.64685000  4.75789000  7.06990000
O  9.13326000  4.57963000  3.32039000
H  8.21587000  4.95446000  3.26338000
H  9.60079000  4.85342000  2.53823000
O  10.43430000  5.41296000  1.05075000
H  10.04240000  5.08280000  0.20171900
H  11.39140000  5.07064000  1.10065000
O  10.44110000  0.88226600  1.08921000
H  10.01570000  1.20753000  0.27705100
H  13.89030000  1.13730000  4.20531000
O  14.35930000  0.83843700  3.39036000
H  13.85010000  1.16118000  8.70175000
H  13.91130000  5.13688000  7.04100000
O  14.35680000  0.84853400  7.90104000
H  13.01830000  2.83544000  10.10820000
H  12.09120000  1.57388000  10.09350000
O  14.39440000  5.46680000  7.86254000
H  15.31590000  5.11496000  7.82474000
H  14.26860000  7.24067000  7.83057000
O  9.13938000  1.73450000  7.85664000
H  9.55679000  1.43052000  7.01892000
H  9.93209000  1.16944000  9.30162000
O  1.34655000  9.12997000  3.38291000
H  1.79653000  8.75808000  4.17180000
H  1.35251000  10.12240000  3.35814000
O  5.23451000  11.87950000  1.11565000
H  5.14991000  10.90850000  1.03738000
H  4.28180000  12.15760000  1.16760000
O  6.56267000  12.80230000  3.34801000
H  7.49463000  12.46910000  3.30985000
H  6.05854000  12.41340000  2.55993000
O  5.24796000  11.91260000  5.63023000
H  5.72789000  12.19800000  6.40394000
H  5.72884000  12.29290000  4.85696000
O  2.63665000  8.23313000  5.61789000
H  3.59224000  8.55384000  5.67130000
H  2.20204000  8.58710000  6.46067000
O  2.62964000  12.80700000  5.63357000
H  2.65033000  13.80270000  5.62886000
H  3.59210000  12.52150000  5.70305000
O  5.22362000  9.11116000  1.08651000
H  4.31154000  8.77744000  1.05003000
H  5.63048000  8.77766000  0.27271600
O  5.24005000  9.16043000  5.62379000
H  5.67351000  8.90591000  4.80162000
H  5.22302000  10.15560000  5.64748000
O  1.30672000  11.87560000  7.88229000
H  1.33375000  10.89810000  7.82357000
H  1.77156000  12.23810000  7.06780000
O  1.33426000  11.90170000  3.36958000
H  0.44412300  12.25220000  3.39986000
H  1.76040000  12.28680000  4.19456000
O  2.61785000  12.81270000  1.09411000
H  2.58086000  13.79090000  1.15202000
H  2.14831000  12.53430000  1.90474000
O  2.60715000  8.20778000  1.08525000
H  2.11457000  8.55863000  0.29232200
H  2.16977000  8.50215000  1.94367000
O  6.53935000  8.26587000  3.35304000
H  7.44591000  8.60001000  3.30961000
H  6.09771000  8.59435000  2.52080000
O  6.55009000  8.26487000  7.86561000
H  6.10008000  8.62789000  7.06041000
H  7.50302000  8.50564000  7.79482000
O  6.57352000  12.78320000  7.91168000
H  6.12777000  12.51260000  8.73262000
H  7.51893000  12.45640000  7.96327000
O  1.32214000  9.10350000  7.88970000
H  0.39880900  8.75662000  7.90132000
H  1.76618000  8.73207000  8.69784000
O  9.15189000  9.11431000  3.34705000
H  9.59285000  8.72302000  2.57854000
H  9.61189000  8.80682000  4.18050000
O  13.04520000  11.84410000  1.10497000
H  13.02910000  10.89650000  1.21482000
H  12.09440000  12.10860000  1.07702000
O  14.37370000  12.76640000  3.37455000
H  13.87410000  12.45070000  4.14674000
H  13.90330000  12.41040000  2.60028000
O  13.03980000  11.89160000  5.63022000
H  12.11860000  12.25870000  5.68986000
H  13.46790000  12.22860000  6.44885000
O  10.44690000  8.22787000  5.64276000
H  11.39610000  8.50936000  5.59104000
H  10.00390000  8.52566000  6.44040000
O  10.44860000  12.83340000  5.61173000
H  10.01300000  12.54020000  4.74744000
H  10.43720000  13.83170000  5.59204000
O  13.04530000  9.07523000  1.09347000
H  13.51530000  8.81686000  0.30352200
H  13.52010000  8.72638000  1.86187000
O  13.06060000  9.14055000  5.60592000
H  13.52760000  8.86213000  4.78961000
H  13.12510000  10.12800000  5.66738000
O  9.18944000  11.90610000  7.89401000
H  9.64976000  12.21260000  7.10978000
H  9.67145000  12.22390000  8.69263000
O  9.14952000  11.86470000  3.34282000
H  9.17483000  10.91320000  3.32699000
H  9.62187000  12.18040000  2.49658000
O  10.45320000  12.79850000  1.06960000
H  9.97190000  12.46090000  0.27287700
H  10.45790000  13.78440000  1.02947000
O  10.44530000  8.17334000  1.11955000
H  10.47920000  7.21629000  1.15838000
H  11.38010000  8.47415000  1.15260000
O  14.36040000  8.20380000  3.36019000
H  14.38630000  7.17212000  3.35870000
H  15.29090000  8.54112000  3.41411000
O  14.33030000  8.21307000  7.89489000
H  13.96090000  8.55638000  7.03764000
H  13.55700000  8.80389000  9.38878000
O  14.34320000  12.80520000  7.92656000
H  13.95980000  12.39130000  8.71206000
H  15.23370000  12.43200000  7.90743000
O  9.14469000  9.14846000  7.90446000
H  9.20466000  10.16410000  8.02119000
H  9.61046000  8.81957000  8.76009000
O  1.33539000  1.74845000  12.39120000
H  1.72835000  1.44906000  11.57020000
H  0.41608700  1.45872000  12.33470000
O  5.26502000  4.53983000  10.14850000
H  5.70429000  4.86942000  10.96500000
H  5.78187000  4.90100000  9.34651000
O  6.54826000  5.48379000  12.39860000
H  6.11322000  5.19275000  13.20330000
H  6.54475000  6.49171000  12.41180000
O  5.23116000  4.51988000  14.65910000
H  5.15693000  3.52529000  14.65440000
H  4.30861000  4.84319000  14.72830000
O  2.63859000  0.86598600  14.65790000
H  2.12112000  1.18457000  15.49820000
H  2.12615000  1.25465000  13.92600000
O  2.63991000  5.43563000  14.70660000
H  2.57887000  6.42052000  14.71080000
H  2.13240000  5.14783000  15.48690000
O  5.23659000  1.77690000  10.15560000
H  4.29081000  1.49715000  10.13560000
H  5.26697000  2.77351000  10.13790000
O  5.24384000  1.74924000  14.67680000
H  5.74296000  1.42685000  15.44450000
H  4.29793000  1.43087000  14.64400000
O  1.33584000  4.52100000  16.95450000
H  1.32435000  3.52878000  16.98830000
H  1.84613000  4.85835000  17.77270000
O  1.37788000  4.50218000  12.41710000
H  1.36276000  3.50425000  12.35970000
H  1.90017000  4.92339000  13.19820000
O  2.64259000  5.43506000  10.13560000
H  2.20701000  5.15320000  10.95410000
H  3.60429000  5.19491000  10.14950000
O  2.64226000  0.85676200  10.10450000
H  2.16352000  1.16487000  9.31367000
H  6.07561000  1.25633000  11.63490000
O  6.55765000  0.88008800  12.39690000
H  6.07920000  1.22050000  13.23150000
H  8.21723000  1.41144000  12.38130000
O  6.56509000  0.83408600  16.91970000
H  6.21852000  1.17909000  17.76880000
H  8.21803000  1.39811000  16.86730000
O  6.58810000  5.44248000  16.90550000
H  6.08727000  5.04519000  16.12770000
H  7.52475000  5.11696000  16.90490000
O  1.33290000  1.75801000  16.92110000
H  0.40597800  1.41693000  16.88550000
H  1.78826000  1.35170000  17.70390000
O  9.13660000  1.80379000  12.40290000
H  9.13354000  2.80173000  12.41580000
H  9.88341000  1.23896000  10.90310000
O  13.05500000  4.58585000  10.10810000
H  13.53430000  4.93757000  10.91850000
H  13.55070000  4.94221000  9.28096000
O  14.41140000  5.42842000  12.39390000
H  15.33340000  5.10679000  12.43060000
H  13.91410000  5.02065000  13.20360000
O  13.10050000  4.50977000  14.64650000
H  13.50610000  4.84852000  15.46110000
H  13.13100000  3.52823000  14.64450000
O  10.47670000  0.81394900  14.62630000
H  10.03320000  1.16251000  13.79990000
H  9.57683000  1.34721000  16.04290000
O  10.50560000  5.43774000  14.62410000
H  10.03020000  5.12439000  13.81510000
H  11.41830000  5.12778000  14.55790000
O  13.05200000  1.81934000  10.14340000
H  13.82120000  1.26894000  11.68170000
H  13.91820000  1.26405000  13.18750000
O  13.08740000  1.73763000  14.67890000
H  13.55840000  1.34496000  15.50410000
H  12.18790000  1.44382000  14.69610000
O  9.18488000  4.51868000  16.88410000
H  9.13691000  3.54046000  16.76700000
H  9.63291000  4.85312000  16.02090000
O  9.17183000  4.56520000  12.39010000
H  8.27330000  4.85739000  12.37850000
H  9.63840000  4.82668000  11.54170000
O  10.43720000  5.43051000  10.11260000
H  10.05360000  5.09671000  9.27681000
H  11.38840000  5.11584000  10.15520000
O  10.44190000  0.90605800  10.13600000
H  10.44560000  7.19071000  10.16040000
H  11.38130000  8.46584000  10.18190000
O  14.36800000  0.88399000  12.37160000
H  13.89950000  1.12610000  17.75110000
H  15.38210000  5.15232000  16.89940000
O  14.37680000  0.81595200  16.92760000
H  14.40050000  6.44659000  16.94180000
H  13.86980000  8.57504000  16.12890000
O  14.39660000  5.46434000  16.90460000
H  15.28690000  8.57100000  16.90970000
H  13.61660000  8.86423000  13.88260000
O  9.14502000  1.74807000  16.86340000
H  6.56778000  7.19242000  16.90850000
H  10.52600000  7.21338000  14.69380000
O  1.35714000  9.12417000  12.38570000
H  1.85716000  8.85176000  11.57610000
H  1.32216000  10.10490000  12.32360000
O  5.24168000  11.86200000  10.13840000
H  5.62267000  12.27150000  11.00010000
H  4.31723000  12.17090000  10.18080000
O  6.52120000  12.80250000  12.40770000
H  6.06027000  12.54940000  13.27620000
H  6.51696000  13.78800000  12.38140000
O  5.20465000  11.89060000  14.66080000
H  5.19734000  10.90080000  14.68030000
H  4.29991000  12.16950000  14.70290000
O  2.60667000  8.20032000  14.64660000
H  2.17413000  8.56698000  13.84000000
H  3.53250000  8.50444000  14.63050000
O  2.61714000  12.81540000  14.67520000
H  2.60847000  13.81540000  14.74470000
H  2.06897000  12.51350000  15.45540000
O  5.27814000  9.11214000  10.13310000
H  5.28604000  10.12830000  10.06490000
H  5.65296000  8.84663000  9.31722000
O  5.22035000  9.11686000  14.64980000
H  5.70102000  8.75754000  15.40940000
H  5.67572000  8.78947000  13.85840000
O  1.33746000  11.93220000  16.91630000
H  1.72506000  12.29770000  17.74670000
H  0.41680800  12.23410000  16.95790000
O  1.32733000  11.90320000  12.39690000
H  0.41039600  12.35050000  12.40870000
H  1.82403000  12.23870000  13.19240000
O  2.64221000  12.79810000  10.12940000
H  2.12227000  12.50690000  10.85750000
H  2.10146000  12.50270000  9.31910000
O  2.64226000  8.18526000  10.12000000
H  2.65399000  7.23504000  10.13450000
H  3.59363000  8.43938000  10.11590000
O  6.52775000  8.23320000  12.40740000
H  7.43304000  8.57487000  12.41910000
H  6.06176000  8.51743000  11.62960000
O  6.55495000  8.20068000  16.89580000
H  7.48685000  8.47701000  16.91730000
H  9.58486000  8.80262000  17.71390000
O  6.52301000  12.79310000  16.92900000
H  6.03674000  12.44410000  16.16500000
H  6.05847000  12.43100000  17.72930000
O  1.31118000  9.15267000  16.90820000
H  1.76763000  8.86546000  16.10760000
H  1.38362000  10.13040000  16.88240000
O  9.16884000  9.12178000  12.40990000
H  9.68124000  8.74347000  11.66770000
H  9.57848000  8.78734000  13.25810000
O  13.04580000  11.86890000  10.17600000
H  13.01640000  10.90010000  10.19940000
H  12.11620000  12.20190000  10.18390000
O  14.36800000  12.85420000  12.38950000
H  13.91320000  12.47230000  11.60420000
H  14.36950000  13.81090000  12.33030000
O  13.04970000  11.92880000  14.64720000
H  13.43920000  12.32230000  13.81160000
H  12.07910000  12.21620000  14.58050000
O  10.47170000  8.19280000  14.67760000
H  11.42430000  8.54876000  14.65410000
H  9.67707000  8.78168000  16.13090000
O  10.42660000  12.80230000  14.64920000
H  9.94749000  12.45610000  13.83100000
H  9.96272000  12.41010000  15.42100000
O  13.04550000  9.10279000  10.16190000
H  13.51160000  8.71271000  10.94100000
H  15.35470000  8.51186000  12.37090000
O  13.06840000  9.15048000  14.63140000
H  13.16470000  10.15040000  14.65790000
H  14.40850000  7.17126000  12.39880000
O  9.12218000  11.89910000  16.90470000
H  8.17773000  12.13510000  17.00260000
H  9.11854000  10.92230000  16.94510000
O  9.11692000  11.88470000  12.38730000
H  8.15530000  12.20300000  12.37490000
H  9.05538000  10.92280000  12.35540000
O  10.47210000  12.83050000  10.17970000
H  10.42530000  13.81640000  10.24140000
H  9.92361000  12.51950000  10.92080000
O  10.45010000  8.19648000  10.18330000
H  6.54778000  14.56010000  7.92492000
H  10.42330000  14.52300000  14.56340000
O  14.40820000  8.19687000  12.39750000
H  13.85660000  12.39590000  16.18000000
H  13.90430000  12.50700000  17.70680000
O  14.35300000  8.23191000  16.89320000
H  14.35250000  14.51900000  16.96150000
H  6.54086000  14.58680000  17.06050000
O  14.35400000  12.76520000  16.93400000
H  14.33300000  14.57180000  7.94589000
H  14.33770000  14.58820000  3.37522000
O  9.16577000  9.13347000  16.92520000
H  2.64381000  14.56080000  10.09180000
H  6.56499000  14.57170000  3.41593000
384
Lattice="15.6456775311 0 0  0.0000000000 14.7071452944 0  0.0000000000 0.0000000000 18.0730370308" Properties=species:S:1:pos:R:3 step=200
O  1.33042000  1.72803000  3.38402000
H  1.30766000  2.71809000  3.25042000
H  0.42223600  1.43027000  3.31115000
O  5.30929000  4.58267000  1.15901000
H  5.77515000  4.96496000  1.95409000
H  5.87464000  4.79775000  0.38936000
O  6.53309000  5.56257000  3.34902000
H  6.13282000  5.35959000  4.22767000
H  6.50548000  6.55165000  3.20202000
O  5.27915000  4.54674000  5.69532000
H  4.41164000  4.96611000  5.77851000
H  5.73680000  4.91209000  6.49801000
O  2.58138000  0.90689200  5.57389000
H  2.19434000  1.16142000  4.68537000
H  3.49742000  1.21499000  5.56834000
O  2.64184000  5.49105000  5.62288000
H  2.55980000  6.45504000  5.61636000
H  2.13388000  5.19581000  6.44779000
O  5.25993000  1.79587000  1.18402000
H  5.21148000  2.81617000  1.24805000
H  5.53397000  1.52809000  2.08787000
O  5.26062000  1.78047000  5.62346000
H  5.69312000  1.49812000  6.49403000
H  5.21699000  2.74522000  5.64531000
O  1.41326000  4.57855000  7.90979000
H  1.42925000  3.59886000  7.94161000
H  1.76660000  4.85347000  8.79514000
O  1.35301000  4.44039000  3.36518000
H  1.93354000  4.79425000  2.62931000
H  1.71002000  4.91778000  4.13143000
O  2.63310000  5.39444000  1.19117000
H  2.44296000  6.34810000  1.17630000
H  3.57487000  5.28167000  0.90579200
O  2.61172000  0.89385800  1.09746000
H  2.15772000  1.19892000  1.90164000
H  3.46543000  1.33490000  1.10951000
O  6.55200000  0.77150000  3.43324000
H  6.18506000  1.12411000  4.25626000
H  8.31994000  1.41710000  3.31512000
O  6.46156000  0.85055100  7.83954000
H  5.97819000  1.18656000  8.62690000
H  8.27019000  1.32395000  7.92856000
O  6.54375000  5.57639000  7.93458000
H  7.48531000  5.27741000  7.83907000
H  6.57155000  6.56105000  7.96972000
O  1.25744000  1.70433000  7.83469000
H  1.58756000  1.42460000  6.96262000
H  0.34378400  1.31158000  7.87115000
O  9.17411000  1.81965000  3.27288000
H  9.10278000  2.79330000  3.19846000
H  9.87500000  1.13609000  1.85429000
O  13.06130000  4.55013000  1.03777000
H  13.08370000  3.53785000  1.09843000
H  13.52680000  4.75082000  0.19464200
O  14.43770000  5.46519000  3.31779000
H  15.29000000  5.05742000  3.35576000
H  13.93610000  5.00006000  2.55543000
O  13.09310000  4.61834000  5.64826000
H  13.37750000  4.92494000  4.77116000
H  12.17720000  4.81614000  5.75466000
O  10.46790000  0.96045100  5.53078000
H  10.07730000  1.36869000  4.69190000
H  11.38310000  1.32198000  5.50734000
O  10.38420000  5.48269000  5.60883000
H  10.03030000  5.28322000  4.77003000
H  10.38670000  6.42702000  5.70025000
O  13.07430000  1.76629000  1.12647000
H  12.15480000  1.34037000  1.05672000
H  13.52350000  1.34736000  1.85440000
O  13.05410000  1.80181000  5.68588000
H  13.48830000  1.33333000  6.40141000
H  13.08570000  2.76753000  5.85464000
O  9.12462000  4.45665000  7.81658000
H  8.97622000  3.47059000  7.79342000
H  9.66203000  4.70773000  7.07079000
O  9.14410000  4.57316000  3.28057000
H  8.29409000  5.04764000  3.13670000
H  9.62657000  4.75287000  2.48617000
O  10.38050000  5.38989000  1.03572000
H  10.11770000  5.02583000  0.14566200
H  11.34130000  5.09984000  1.16739000
O  10.40910000  0.87794300  1.10170000
H  9.93346000  1.26472000  0.34374200
H  13.80350000  1.10138000  4.25409000
O  14.32990000  0.83089500  3.46046000
H  13.82240000  1.19664000  8.63728000
H  13.93520000  5.16726000  7.08424000
O  14.37800000  0.80996700  7.89622000
H  13.12530000  2.85886000  10.11420000
H  12.12800000  1.57947000  10.02290000
O  14.43630000  5.53856000  7.88640000
H  15.34280000  5.15209000  7.82928000
H  14.17520000  7.28667000  7.85876000
O  9.15334000  1.70635000  7.86279000
H  9.48189000  1.43039000  6.97903000
H  9.98504000  1.06226000  9.20722000
O  1.37117000  9.13536000  3.43871000
H  1.84640000  8.86452000  4.26028000
H  1.45353000  10.12440000  3.52445000
O  5.25983000  11.87460000  1.13795000
H  5.17998000  10.92660000  0.93360800
H  4.35951000  12.28920000  1.21397000
O  6.54010000  12.79100000  3.33506000
H  7.48475000  12.45350000  3.27410000
H  6.06517000  12.30530000  2.59178000
O  5.22624000  11.85780000  5.63750000
H  5.70586000  12.14450000  6.41501000
H  5.67330000  12.28700000  4.85808000
O  2.63530000  8.23888000  5.59921000
H  3.60615000  8.50924000  5.62124000
H  2.18238000  8.57230000  6.44255000
O  2.61225000  12.77970000  5.64953000
H  2.62418000  13.78250000  5.70545000
H  3.54666000  12.49230000  5.78568000
O  5.20818000  9.10360000  1.11560000
H  4.28115000  8.80919000  1.10197000
H  5.63885000  8.80722000  0.28975100
O  5.23982000  9.13758000  5.61884000
H  5.70131000  8.99736000  4.77829000
H  5.16719000  10.13690000  5.69313000
O  1.25412000  11.88870000  7.90257000
H  1.34844000  10.91390000  7.77062000
H  1.66642000  12.30970000  7.09030000
O  1.34775000  11.91090000  3.37791000
H  0.46063700  12.24040000  3.36757000
H  1.86191000  12.29580000  4.15406000
O  2.59919000  12.80990000  1.00866000
H  2.62786000  13.78570000  1.06361000
H  2.18406000  12.43850000  1.81229000
O  2.62855000  8.22742000  1.09834000
H  2.03746000  8.59820000  0.40337200
H  2.15073000  8.48013000  1.95393000
O  6.58143000  8.26010000  3.30545000
H  7.46712000  8.61146000  3.31207000
H  6.13412000  8.56890000  2.48466000
O  6.47445000  8.34600000  7.86818000
H  6.04349000  8.68136000  7.04769000
H  7.44307000  8.44966000  7.73149000
O  6.60373000  12.81890000  7.95591000
H  6.14877000  12.59600000  8.77930000
H  7.53683000  12.49090000  8.05009000
O  1.32984000  9.05486000  7.88360000
H  0.44926500  8.64740000  7.87208000
H  1.79607000  8.72817000  8.68561000
O  9.14292000  9.15817000  3.32681000
H  9.59898000  8.72604000  2.56758000
H  9.62804000  8.84499000  4.14128000
O  13.05360000  11.82430000  1.04947000
H  13.13000000  10.92650000  1.32658000
H  12.10440000  12.08090000  1.02298000
O  14.42960000  12.72350000  3.35027000
H  13.93190000  12.48190000  4.15758000
H  13.94010000  12.40630000  2.56594000
O  13.03410000  11.86690000  5.58104000
H  12.09470000  12.17360000  5.62243000
H  13.51800000  12.23510000  6.34573000
O  10.38790000  8.26536000  5.63051000
H  11.35160000  8.52654000  5.65029000
H  10.10750000  8.62529000  6.49808000
O  10.47500000  12.84480000  5.59784000
H  10.08750000  12.66650000  4.68128000
H  10.43810000  13.83460000  5.67619000
O  13.02590000  9.07551000  1.07172000
H  13.50260000  8.87864000  0.27367400
H  13.55020000  8.65656000  1.77766000
O  13.06460000  9.16654000  5.61488000
H  13.52000000  9.02167000  4.76224000
H  13.13650000  10.14180000  5.74495000
O  9.15371000  11.86360000  7.86200000
H  9.63596000  12.11730000  7.08024000
H  9.71960000  12.14230000  8.61211000
O  9.08254000  11.85970000  3.32401000
H  9.13041000  10.90870000  3.33218000
H  9.51247000  12.16120000  2.45653000
O  10.45410000  12.73360000  1.05229000
H  9.95633000  12.39870000  0.25305400
H  10.47230000  13.70900000  0.92014800
O  10.42780000  8.14480000  1.13826000
H  10.44570000  7.20426000  1.29764000
H  11.35730000  8.47682000  1.15240000
O  14.31280000  8.20501000  3.39707000
H  14.40920000  7.17532000  3.34994000
H  15.24460000  8.51930000  3.51601000
O  14.28340000  8.25713000  7.91272000
H  14.07110000  8.61512000  7.01945000
H  13.58080000  8.90858000  9.42174000
O  14.33460000  12.83940000  7.93631000
H  13.90210000  12.41930000  8.68710000
H  15.20860000  12.46150000  7.79077000
O  9.06391000  9.11814000  7.90896000
H  9.04520000  10.13220000  7.97258000
H  9.53380000  8.68353000  8.70217000
O  1.32072000  1.76259000  12.39900000
H  1.75880000  1.56525000  11.56450000
H  0.39807000  1.48403000  12.31850000
O  5.27124000  4.54129000  10.16280000
H  5.69064000  4.85906000  11.00310000
H  5.85050000  4.93909000  9.42855000
O  6.59206000  5.54365000  12.34200000
H  6.19283000  5.31037000  13.18250000
H  6.70263000  6.54643000  12.33570000
O  5.21989000  4.50718000  14.64930000
H  5.09462000  3.52663000  14.60340000
H  4.33120000  4.92351000  14.75780000
O  2.62334000  0.84452600  14.65680000
H  2.26779000  1.10180000  15.58720000
H  2.12272000  1.29435000  13.96310000
O  2.69144000  5.43591000  14.74360000
H  2.60790000  6.41379000  14.69620000
H  2.09816000  5.06037000  15.42100000
O  5.23478000  1.78678000  10.20310000
H  4.27378000  1.56734000  10.15720000
H  5.27115000  2.79275000  10.13410000
O  5.26466000  1.72176000  14.70190000
H  5.71350000  1.32364000  15.48280000
H  4.36204000  1.29279000  14.74640000
O  1.35103000  4.51992000  16.94770000
H  1.33679000  3.53464000  17.08130000
H  1.83303000  4.87313000  17.77110000
O  1.39579000  4.52424000  12.41160000
H  1.56470000  3.52122000  12.46610000
H  2.09711000  4.83020000  13.08200000
O  2.62583000  5.50442000  10.08390000
H  2.25887000  5.24161000  10.94320000
H  3.59294000  5.33017000  10.15660000
O  2.64482000  0.87644700  10.09680000
H  2.17564000  1.16637000  9.29272000
H  6.09769000  1.31942000  11.62830000
O  6.58735000  0.89075700  12.36440000
H  6.15161000  1.21651000  13.21660000
H  8.21022000  1.45564000  12.35890000
O  6.61398000  0.79145900  16.92650000
H  6.44443000  1.32507000  17.71310000
H  8.17526000  1.32584000  16.90980000
O  6.56099000  5.42421000  16.92310000
H  6.13135000  4.92862000  16.16050000
H  7.48797000  5.10600000  16.89890000
O  1.37471000  1.77276000  16.92970000
H  0.42844100  1.50252000  16.84820000
H  1.74365000  1.25621000  17.68060000
O  9.15057000  1.80140000  12.43500000
H  8.96612000  2.77918000  12.45300000
H  9.81548000  1.22829000  10.82880000
O  13.03620000  4.59685000  10.07570000
H  13.52320000  5.01132000  10.85730000
H  13.49720000  5.03139000  9.26931000
O  14.40620000  5.42690000  12.40670000
H  15.33920000  5.14171000  12.51290000
H  13.89560000  5.01642000  13.18770000
O  13.10090000  4.54906000  14.61940000
H  13.52090000  4.84264000  15.45270000
H  13.21020000  3.56596000  14.64350000
O  10.48960000  0.76153300  14.62290000
H  10.11970000  1.17926000  13.80300000
H  9.50331000  1.28260000  16.03100000
O  10.48960000  5.39062000  14.61060000
H  10.02010000  5.20292000  13.76990000
H  11.41910000  5.14838000  14.47490000
O  13.05980000  1.84655000  10.15040000
H  13.78800000  1.20292000  11.67970000
H  14.07020000  1.18396000  13.25620000
O  13.13100000  1.71585000  14.69450000
H  13.55430000  1.30792000  15.54130000
H  12.21170000  1.50867000  14.72740000
O  9.18752000  4.53789000  16.93190000
H  9.08205000  3.58221000  16.73820000
H  9.52491000  5.00406000  16.09330000
O  9.23392000  4.55058000  12.38450000
H  8.34481000  4.88026000  12.26640000
H  9.65432000  4.73114000  11.48520000
O  10.45740000  5.41905000  10.13360000
H  10.16170000  5.09479000  9.26721000
H  11.41560000  5.10410000  10.21300000
O  10.41410000  0.89805600  10.10120000
H  10.43390000  7.17143000  10.24740000
H  11.39720000  8.42326000  10.18100000
O  14.36940000  0.87536100  12.36800000
H  13.89490000  1.16210000  17.71650000
H  15.45940000  5.19369000  16.86570000
O  14.37040000  0.81387700  16.91020000
H  14.43550000  6.46328000  16.99350000
H  13.87500000  8.61856000  16.12710000
O  14.46470000  5.48061000  16.90130000
H  15.21010000  8.63554000  16.88620000
H  13.70930000  8.83297000  13.98190000
O  9.06672000  1.73407000  16.83050000
H  6.47176000  7.16765000  16.94860000
H  10.60770000  7.14776000  14.73130000
O  1.38274000  9.07204000  12.43100000
H  1.94802000  8.81273000  11.68300000
H  1.24186000  10.03660000  12.38380000
O  5.22876000  11.80490000  10.10300000
H  5.60656000  12.18540000  10.96530000
H  4.28802000  12.02370000  10.03300000
O  6.54483000  12.76120000  12.37010000
H  6.13900000  12.62460000  13.28100000
H  6.55494000  13.73920000  12.23660000
O  5.22458000  11.86850000  14.63800000
H  5.27955000  10.87400000  14.64240000
H  4.30439000  12.08800000  14.73280000
O  2.57364000  8.14571000  14.60600000
H  2.14988000  8.56632000  13.81290000
H  3.50778000  8.41850000  14.63460000
O  2.64155000  12.79550000  14.71190000
H  2.64043000  13.79610000  14.74170000
H  1.98846000  12.47290000  15.36720000
O  5.34695000  9.10103000  10.17130000
H  5.33395000  10.10240000  10.12610000
H  5.70949000  8.77235000  9.36024000
O  5.19938000  9.09970000  14.62300000
H  5.75017000  8.72384000  15.33320000
H  5.58749000  8.78594000  13.79240000
O  1.34960000  11.96880000  16.85940000
H  1.75385000  12.39180000  17.63980000
H  0.39789400  12.14400000  16.83640000
O  1.32222000  11.92190000  12.37560000
H  0.47409300  12.47490000  12.45610000
H  1.92119000  12.26630000  13.08560000
O  2.65065000  12.83720000  10.09290000
H  2.11041000  12.58360000  10.82850000
H  2.14179000  12.63610000  9.24268000
O  2.62289000  8.17066000  10.07180000
H  2.52842000  7.21987000  10.06860000
H  3.58008000  8.37805000  10.09930000
O  6.51084000  8.25411000  12.44170000
H  7.38379000  8.63652000  12.34420000
H  6.12605000  8.57316000  11.61010000
O  6.54092000  8.16502000  16.88360000
H  7.47220000  8.44063000  16.89030000
H  9.55239000  8.80621000  17.72280000
O  6.56219000  12.79390000  16.95420000
H  6.06294000  12.42210000  16.22040000
H  6.10523000  12.48000000  17.77840000
O  1.29914000  9.15078000  16.92670000
H  1.67605000  8.77308000  16.12160000
H  1.43689000  10.12410000  16.90640000
O  9.23290000  9.14352000  12.39470000
H  9.85212000  8.69317000  11.79360000
H  9.47210000  8.78446000  13.28590000
O  13.02070000  11.89520000  10.17820000
H  12.95280000  10.92560000  10.22950000
H  12.09560000  12.22520000  10.21890000
O  14.35610000  12.90250000  12.38600000
H  13.87250000  12.56110000  11.59750000
H  14.37970000  13.86320000  12.25270000
O  13.01780000  11.98420000  14.64150000
H  13.38360000  12.37160000  13.81080000
H  12.01520000  12.09740000  14.66680000
O  10.46990000  8.11396000  14.65810000
H  11.38320000  8.53337000  14.66630000
H  9.74684000  8.73780000  16.20850000
O  10.41050000  12.86710000  14.70390000
H  9.95027000  12.57210000  13.84640000
H  9.96228000  12.39540000  15.43400000
O  13.02390000  9.12860000  10.18330000
H  13.39040000  8.70569000  10.98440000
H  15.37710000  8.46919000  12.36550000
O  13.05520000  9.16826000  14.63340000
H  13.21990000  10.13400000  14.78750000
H  14.45060000  7.18181000  12.44620000
O  9.11976000  11.89660000  16.92510000
H  8.21255000  12.21990000  17.09210000
H  9.14295000  10.92020000  16.95190000
O  9.12101000  11.90010000  12.38990000
H  8.17821000  12.28400000  12.35700000
H  9.07008000  10.94350000  12.31800000
O  10.45850000  12.78390000  10.17830000
H  10.38840000  13.76170000  10.22880000
H  9.89475000  12.41380000  10.86350000
O  10.45990000  8.16426000  10.20950000
H  6.50859000  14.58550000  8.01514000
H  10.46240000  14.46960000  14.57000000
O  14.42950000  8.20080000  12.41030000
H  13.83670000  12.34550000  16.17530000
H  13.92980000  12.58950000  17.68130000