ITEM: TIMESTEP
0
ITEM: NUMBER OF ATOMS
384
ITEM: BOX BOUNDS xy xz yz pp pp pp
0.0000000000000000e+00 1.5645677531129000e+01 0.0000000000000000e+00
0.0000000000000000e+00 1.4707145294364000e+01 0.0000000000000000e+00
0.0000000000000000e+00 1.8073037030847999e+01 0.0000000000000000e+00
ITEM: ATOMS id type mass x y z
1 1 15.9994 1.34478 1.76218 3.18563
2 2 1.008 1.38216 2.76124 3.19502
3 2 1.008 0.406774 1.54521 3.13934
4 1 15.9994 5.71445 5.125 0.920915
5 2 1.008 5.99611 5.21777 1.8484
6 2 1.008 5.63314 4.1472 0.796132
7 1 15.9994 6.56662 5.64697 3.59441
8 2 1.008 6.02761 5.25074 4.32648
9 2 1.008 6.48972 6.61481 3.66269
10 1 15.9994 5.16696 4.56877 5.612
11 2 1.008 4.21973 4.83497 5.65253
12 2 1.008 5.57453 4.83863 6.46141
13 1 15.9994 2.58814 0.93437 5.64465
14 2 1.008 2.20864 1.20123 4.78936
15 2 1.008 3.5421 1.16483 5.61197
16 1 15.9994 2.55672 5.34255 5.63436
17 2 1.008 2.49228 6.31278 5.61078
18 2 1.008 2.06618 5.04705 6.44374
19 1 15.9994 5.39906 2.40903 0.777424
20 2 1.008 4.49519 2.06425 0.702547
21 2 1.008 5.74214 1.97678 1.59106
22 1 15.9994 5.23895 1.71311 5.55728
23 2 1.008 5.72472 1.43083 6.36963
24 2 1.008 5.22848 2.68689 5.59017
25 1 15.9994 1.23181 4.54569 7.83341
26 2 1.008 1.19543 3.56927 7.83733
27 2 1.008 1.69382 4.79285 8.65614
28 1 15.9994 1.44113 4.3908 3.21496
29 2 1.008 2.00363 4.77675 2.51001
30 2 1.008 1.81686 4.70604 4.05706
31 1 15.9994 2.96374 5.58461 1.23086
32 2 1.008 2.92043 6.54546 1.32177
33 2 1.008 3.91473 5.37889 1.10811
34 1 15.9994 2.85458 1.05785 0.875791
35 2 1.008 2.34034 1.27943 1.66773
36 2 1.008 3.1707 0.160564 1.06326
37 1 15.9994 6.38816 1.13066 3.03851
38 2 1.008 5.97806 1.26255 3.9156
39 2 1.008 7.33225 1.3143 3.16392
40 1 15.9994 6.56093 1.00623 7.82161
41 2 1.008 6.15903 1.18046 8.69298
42 2 1.008 7.51704 1.15399 7.91967
43 1 15.9994 6.49019 5.38349 7.93127
44 2 1.008 7.41262 5.04567 7.88613
45 2 1.008 6.55676 6.35787 7.9319
46 1 15.9994 1.31538 1.72994 7.8006
47 2 1.008 1.81644 1.4516 6.97945
48 2 1.008 0.501807 1.2167 7.78105
49 1 15.9994 9.17063 1.9432 3.30302
50 2 1.008 9.07721 2.9013 3.46478
51 2 1.008 9.59929 1.89367 2.43101
52 1 15.9994 13.1576 4.74884 1.1632
53 2 1.008 13.248 2.83446 1.53692
54 2 1.008 13.6481 4.77945 0.340244
55 1 15.9994 14.5741 5.73193 3.30854
56 2 1.008 15.3095 5.21448 3.63724
57 2 1.008 13.7122 5.1772 1.85119
58 1 15.9994 12.8773 4.7172 5.40714
59 2 1.008 13.2596 5.14766 4.62646
60 2 1.008 11.9439 5.05014 5.49934
61 1 15.9994 10.3625 0.807007 5.5485
62 2 1.008 9.91243 1.13971 4.74846
63 2 1.008 11.3052 0.893221 5.35629
64 1 15.9994 10.3897 5.58832 5.63996
65 2 1.008 9.8846 5.29021 4.84022
66 2 1.008 10.3453 6.56571 5.64351
67 1 15.9994 13.1535 1.8693 1.59223
68 2 1.008 11.4271 1.81645 1.06659
69 2 1.008 13.4536 1.63078 2.47953
70 1 15.9994 13.0534 2.0121 5.15502
71 2 1.008 13.873 2.12261 6.97695
72 2 1.008 12.8754 2.98519 5.20901
73 1 15.9994 9.09143 4.53759 7.86497
74 2 1.008 9.28794 2.63974 7.88595
75 2 1.008 9.57256 4.9239 7.10445
76 1 15.9994 9.06768 4.75683 3.48814
77 2 1.008 8.12918 5.08064 3.50195
78 2 1.008 9.45146 5.00892 2.63104
79 1 15.9994 10.3155 5.28255 0.949187
80 2 1.008 9.87566 4.5507 0.490315
81 2 1.008 11.2409 4.99956 1.02901
82 1 15.9994 10.5128 2.056 0.792515
83 2 1.008 10.2078 1.36325 0.204738
84 2 1.008 14.9043 1.66897 5.06587
85 1 15.9994 14.2741 1.99401 4.40347
86 2 1.008 14.2365 1.97787 8.46069
87 2 1.008 13.7705 5.09818 6.95609
88 1 15.9994 14.6072 2.26662 7.59243
89 2 1.008 13.0495 2.95675 9.96237
90 2 1.008 12.4524 1.52555 10.0187
91 1 15.9994 14.3621 5.07059 7.73559
92 2 1.008 14.6302 4.13235 7.71472
93 2 1.008 14.5506 7.01139 7.82812
94 1 15.9994 9.35542 1.6721 7.96738
95 2 1.008 9.72052 1.352 7.11457
96 2 1.008 10.35 1.15628 9.39871
97 1 15.9994 1.44633 9.33178 3.33726
98 2 1.008 1.82992 8.94105 4.15295
99 2 1.008 1.47558 10.2881 3.46572
100 1 15.9994 5.32439 11.6368 0.924724
101 2 1.008 5.44634 10.6732 0.870792
102 2 1.008 3.76261 12.3923 1.03131
103 1 15.9994 6.63431 12.6875 3.37554
104 2 1.008 7.58134 12.4252 3.35617
105 2 1.008 5.79577 11.898 1.73558
106 1 15.9994 5.12862 11.8658 5.58318
107 2 1.008 6.10429 12.2465 7.1214
108 2 1.008 5.60698 12.1391 4.77148
109 1 15.9994 2.53819 8.21372 5.57519
110 2 1.008 3.47948 8.47153 5.65512
111 2 1.008 2.10398 8.49875 6.39928
112 1 15.9994 2.52984 13.0101 5.60224
113 2 1.008 2.51552 13.9718 5.56366
114 2 1.008 4.25957 12.2972 5.56506
115 1 15.9994 5.36214 8.6857 0.950155
116 2 1.008 4.37875 8.58332 0.997781
117 2 1.008 5.65771 7.92075 0.454452
118 1 15.9994 5.20149 9.07884 5.71042
119 2 1.008 5.64352 8.85076 4.8607
120 2 1.008 5.12931 10.0533 5.7016
121 1 15.9994 1.31002 11.8204 7.87849
122 2 1.008 1.15633 10.1032 7.89836
123 2 1.008 1.70404 12.2096 7.07769
124 1 15.9994 1.32482 12.2288 3.25759
125 2 1.008 0.407995 12.3111 3.0546
126 2 1.008 2.05244 12.7569 4.78057
127 1 15.9994 2.93556 12.9118 1.16639
128 2 1.008 2.71986 13.3529 0.342128
129 2 1.008 1.87445 12.469 2.46087
130 1 15.9994 2.6836 8.48838 1.15866
131 2 1.008 2.03278 8.43354 0.455302
132 2 1.008 2.2088 8.81074 1.97117
133 1 15.9994 6.52677 8.48021 3.4252
134 2 1.008 7.46243 8.75965 3.36803
135 2 1.008 6.12038 8.5836 2.53801
136 1 15.9994 6.5626 8.2031 7.92915
137 2 1.008 6.11125 8.5212 7.11568
138 2 1.008 7.48915 8.51478 7.88659
139 1 15.9994 6.53546 12.4678 7.96144
140 2 1.008 5.88093 14.6098 8.90181
141 2 1.008 7.47899 12.2276 7.87456
142 1 15.9994 1.2108 9.11822 7.90954
143 2 1.008 0.309909 8.77817 7.93499
144 2 1.008 2.20516 8.51185 9.32803
145 1 15.9994 9.19438 9.25523 3.38892
146 2 1.008 9.61126 8.80881 2.60939
147 2 1.008 9.63815 8.89855 4.19237
148 1 15.9994 13.1462 11.7983 1.12974
149 2 1.008 13.1673 10.8266 1.18139
150 2 1.008 12.2206 12.0313 0.965963
151 1 15.9994 14.077 13.1208 3.35513
152 2 1.008 13.4704 12.2687 4.78315
153 2 1.008 13.8075 12.672 2.52362
154 1 15.9994 13.0658 11.8025 5.543
155 2 1.008 12.149 12.1191 5.57293
156 2 1.008 14.0803 11.7457 7.13526
157 1 15.9994 10.4543 8.35902 5.63079
158 2 1.008 11.4019 8.59864 5.70769
159 2 1.008 10.0256 8.61756 6.48115
160 1 15.9994 10.4302 12.9148 5.53341
161 2 1.008 10.001 12.5566 4.71968
162 2 1.008 10.4482 13.8685 5.42999
163 1 15.9994 13.2178 8.95336 1.35246
164 2 1.008 13.6649 8.55834 0.605145
165 2 1.008 13.7302 8.70484 2.15536
166 1 15.9994 13.1673 9.04018 5.75307
167 2 1.008 14.0504 8.60436 4.42549
168 2 1.008 13.2035 10.0184 5.81068
169 1 15.9994 9.27545 11.8282 7.9015
170 2 1.008 9.73789 12.2046 7.12941
171 2 1.008 9.70539 12.1993 8.69679
172 1 15.9994 9.23517 11.8822 3.31122
173 2 1.008 9.2637 10.8817 3.33284
174 2 1.008 9.63098 12.1418 2.46112
175 1 15.9994 10.275 12.5573 0.694973
176 2 1.008 9.8423 11.9868 0.0453776
177 2 1.008 10.2356 13.4453 0.326494
178 1 15.9994 10.3471 8.18384 1.19168
179 2 1.008 10.1978 7.23869 1.01234
180 2 1.008 11.3073 8.29908 1.26663
181 1 15.9994 14.637 8.34802 3.6463
182 2 1.008 14.7233 6.6774 3.5466
183 2 1.008 15.42 8.88876 3.75412
184 1 15.9994 14.4858 7.97672 7.76748
185 2 1.008 13.6654 8.70876 6.55118
186 2 1.008 14.04 8.27424 8.58344
187 1 15.9994 14.6442 11.5715 7.90772
188 2 1.008 14.0715 11.6523 8.68431
189 2 1.008 14.7408 14.064 7.53087
190 1 15.9994 9.19852 9.07094 7.92738
191 2 1.008 9.24195 10.0456 7.98384
192 2 1.008 9.66877 8.72879 8.72796
193 1 15.9994 1.14973 1.92075 12.3995
194 2 1.008 2.16833 1.29493 10.898
195 2 1.008 0.227823 1.69448 12.2557
196 1 15.9994 5.16582 4.48725 10.1699
197 2 1.008 5.62882 4.84968 10.9532
198 2 1.008 5.66062 4.80251 9.3836
199 1 15.9994 6.44861 5.45282 12.4629
200 2 1.008 5.98004 5.16966 13.2814
201 2 1.008 6.47384 6.42935 12.4899
202 1 15.9994 5.15291 4.71719 14.7624
203 2 1.008 5.27422 2.8934 14.7352
204 2 1.008 4.23136 5.04304 14.7188
205 1 15.9994 2.47115 1.53812 14.8118
206 2 1.008 2.32086 2.47698 15.001
207 2 1.008 2.04331 1.43199 13.9385
208 1 15.9994 2.51801 5.60986 14.7315
209 2 1.008 2.4922 6.59044 14.7296
210 2 1.008 2.13939 5.31103 15.5789
211 1 15.9994 5.34789 1.65952 10.3051
212 2 1.008 4.42157 1.33405 10.284
213 2 1.008 5.27233 2.63219 10.2575
214 1 15.9994 5.31978 1.91618 14.7556
215 2 1.008 6.23425 1.35605 16.2028
216 2 1.008 4.39532 1.61712 14.6785
217 1 15.9994 1.76878 4.5244 17.2072
218 2 1.008 1.50311 3.59713 17.3443
219 2 1.008 2.54289 4.6467 17.7704
220 1 15.9994 1.24275 4.5651 12.4143
221 2 1.008 1.18706 2.92067 12.3901
222 2 1.008 1.68433 4.96259 13.1852
223 1 15.9994 2.58515 5.39693 10.1594
224 2 1.008 1.7349 4.88286 11.6249
225 2 1.008 3.51036 5.06053 10.1474
226 1 15.9994 2.70036 0.920424 10.1758
227 2 1.008 2.27265 1.20613 9.34929
228 2 1.008 6.38962 1.1873 11.7331
229 1 15.9994 6.94099 1.02416 12.5268
230 2 1.008 6.39747 1.29702 13.2839
231 2 1.008 8.56623 1.47017 12.5064
232 1 15.9994 6.75044 1.11626 16.9989
233 2 1.008 6.27656 1.51645 17.7344
234 2 1.008 8.47277 1.80933 16.9642
235 1 15.9994 6.26745 5.85761 16.9954
236 2 1.008 5.55983 5.14814 15.5516
237 2 1.008 7.20337 5.54587 17.0637
238 1 15.9994 1.20007 1.74725 17.4139
239 2 1.008 0.418159 1.52838 16.8892
240 2 1.008 1.91308 1.30478 16.9299
241 1 15.9994 9.49037 1.83789 12.4792
242 2 1.008 9.34992 2.80583 12.4152
243 2 1.008 10.4237 1.18374 10.9535
244 1 15.9994 12.8631 4.79907 10.0354
245 2 1.008 13.3326 5.05035 10.8545
246 2 1.008 13.4306 5.02533 9.26766
247 1 15.9994 14.1232 5.16878 12.4904
248 2 1.008 14.52 4.27107 12.4556
249 2 1.008 13.4686 5.05706 13.216
250 1 15.9994 12.5319 4.73605 14.6518
251 2 1.008 13.1468 4.87856 15.4087
252 2 1.008 12.3057 3.78201 14.6438
253 1 15.9994 10.8813 1.37124 14.6836
254 2 1.008 10.4045 1.52526 13.8134
255 2 1.008 9.82529 1.98705 16.2247
256 1 15.9994 10.0657 5.85507 14.6105
257 2 1.008 9.39202 5.07467 13.1856
258 2 1.008 10.9783 5.50294 14.6881
259 1 15.9994 13.3185 2.01606 9.97066
260 2 1.008 14.1567 2.10972 11.5681
261 2 1.008 13.6206 2.11039 12.9946
262 1 15.9994 12.1387 2.02728 14.4608
263 2 1.008 14.7169 1.0197 16.1378
264 2 1.008 12.6792 1.64943 15.1888
265 1 15.9994 8.86085 5.02619 17.066
266 2 1.008 9.01631 4.05666 17.1004
267 2 1.008 9.24495 5.30336 16.2156
268 1 15.9994 9.04744 4.62272 12.3822
269 2 1.008 8.08745 4.83295 12.3801
270 2 1.008 9.82558 5.17397 10.9855
271 1 15.9994 10.2506 5.55743 10.1776
272 2 1.008 9.50931 4.88625 8.67726
273 2 1.008 11.1765 5.23008 10.1493
274 1 15.9994 10.9195 0.917238 10.1596
275 2 1.008 10.365 7.19294 10.1777
276 2 1.008 11.4331 8.35068 10.1653
277 1 15.9994 14.4005 2.37062 12.4845
278 2 1.008 13.57 0.664009 17.1079
279 2 1.008 14.129 4.80725 17.4784
280 1 15.9994 13.8868 1.33998 16.5014
281 2 1.008 14.3022 6.21011 16.8322
282 2 1.008 13.9476 8.40601 16.0716
283 1 15.9994 14.3228 5.24409 16.6508
284 2 1.008 15.2629 8.29018 16.8666
285 2 1.008 13.7563 8.68532 13.7854
286 1 15.9994 9.33072 2.27685 17.009
287 2 1.008 6.2896 6.8132 17.136
288 2 1.008 10.1778 6.82267 14.5386
289 1 15.9994 1.50813 9.32349 12.4023
290 2 1.008 1.88863 8.89886 11.6017
291 2 1.008 1.65675 10.2717 12.3023
292 1 15.9994 5.26711 11.8336 10.2538
293 2 1.008 5.72587 12.0452 9.40584
294 2 1.008 4.37149 12.208 10.1656
295 1 15.9994 6.6816 12.8783 12.3866
296 2 1.008 6.16791 12.6674 13.1842
297 2 1.008 6.16032 12.527 11.6308
298 1 15.9994 5.16675 12.2003 14.659
299 2 1.008 5.1987 10.2793 14.4283
300 2 1.008 4.25951 12.5532 14.7061
301 1 15.9994 2.61421 8.39812 14.6761
302 2 1.008 2.19174 8.70065 13.8341
303 2 1.008 3.55495 8.66604 14.6074
304 1 15.9994 2.50817 13.1833 14.7615
305 2 1.008 2.5038 14.1416 14.8656
306 2 1.008 2.09447 12.8111 15.5912
307 1 15.9994 5.26616 9.02846 10.1554
308 2 1.008 5.26049 10.0066 10.1574
309 2 1.008 5.7449 8.74502 9.33936
310 1 15.9994 5.22718 9.31191 14.5335
311 2 1.008 6.01069 9.09598 16.186
312 2 1.008 5.73272 8.95057 13.7648
313 1 15.9994 1.47859 12.1452 16.9479
314 2 1.008 1.54465 11.1523 16.9635
315 2 1.008 0.559411 12.3277 17.1513
316 1 15.9994 1.3481 12.2727 12.4373
317 2 1.008 0.401808 12.1633 12.5595
318 2 1.008 1.70902 12.5951 13.2928
319 1 15.9994 2.65564 13.0094 10.1418
320 2 1.008 2.14988 12.7832 10.9541
321 2 1.008 1.77391 12.2336 8.62041
322 1 15.9994 2.65215 8.20667 10.1404
323 2 1.008 2.63721 6.3734 10.1446
324 2 1.008 3.59137 8.48649 10.0803
325 1 15.9994 6.57242 8.27019 12.4343
326 2 1.008 7.49286 8.59539 12.3578
327 2 1.008 6.12371 8.5164 11.5926
328 1 15.9994 6.39579 9.17815 17.0842
329 2 1.008 7.35193 9.03751 16.967
330 2 1.008 9.66846 8.79447 17.7401
331 1 15.9994 6.42868 12.1441 17.2426
332 2 1.008 5.55455 12.3145 15.5451
333 2 1.008 6.28796 11.1918 17.4345
334 1 15.9994 1.50541 9.48938 16.875
335 2 1.008 1.73767 8.91946 17.5947
336 2 1.008 1.9035 9.06469 16.0682
337 1 15.9994 9.15685 9.26286 12.2665
338 2 1.008 9.65412 8.87757 11.5027
339 2 1.008 9.65616 9.00598 13.0736
340 1 15.9994 13.0219 11.627 10.3131
341 2 1.008 13.1768 9.80891 10.292
342 2 1.008 12.158 12.0712 10.3001
343 1 15.9994 14.5048 12.6009 12.4042
344 2 1.008 13.5385 12.0367 11.0356
345 2 1.008 15.0387 13.3926 12.4582
346 1 15.9994 13.1343 11.9227 14.694
347 2 1.008 14.0754 12.4722 13.2765
348 2 1.008 12.2022 12.215 14.6458
349 1 15.9994 10.5053 8.6086 14.5547
350 2 1.008 11.4696 8.76748 14.5812
351 2 1.008 10.1338 8.85536 15.4265
352 1 15.9994 10.4739 12.8202 14.5239
353 2 1.008 9.9763 12.4705 13.7331
354 2 1.008 9.68116 12.2568 16.1428
355 1 15.9994 13.192 8.8339 10.1972
356 2 1.008 13.6688 8.48094 10.9743
357 2 1.008 15.5524 7.97737 12.2429
358 1 15.9994 13.2688 9.08467 14.537
359 2 1.008 13.3279 10.0536 14.4615
360 2 1.008 14.557 6.79275 12.4529
361 1 15.9994 9.34167 11.9561 17.0057
362 2 1.008 8.39904 12.1844 17.0239
363 2 1.008 9.39352 10.2065 17.097
364 1 15.9994 9.15986 11.9515 12.3786
365 2 1.008 8.20771 12.252 12.3861
366 2 1.008 9.14802 10.962 12.3072
367 1 15.9994 10.4383 12.8763 10.2136
368 2 1.008 10.3715 13.8362 10.2294
369 2 1.008 9.94404 12.5546 11.0141
370 1 15.9994 10.4664 8.18443 10.1457
371 2 1.008 5.62824 0.508995 9.2541
372 2 1.008 10.4295 13.7797 14.4506
373 1 15.9994 14.6258 7.78236 12.4135
374 2 1.008 13.4705 12.2161 15.5591
375 2 1.008 14.0048 12.1984 17.9542
376 1 15.9994 14.3381 8.03064 16.8894
377 2 1.008 14.2632 13.6369 17.5077
378 2 1.008 6.08787 12.6316 17.997
379 1 15.9994 14.2274 12.7439 17.191
380 2 1.008 14.6173 0.0607065 7.32159
381 2 1.008 14.9885 13.3927 3.22881
382 1 15.9994 9.3028 9.23314 16.9645
383 2 1.008 2.74509 13.9663 10.1436
384 2 1.008 6.642 13.6519 3.29192
ITEM: TIMESTEP
100
ITEM: NUMBER OF ATOMS
384
ITEM: BOX BOUNDS xy xz yz pp pp pp
0.0000000000000000e+00 1.5645677531129000e+01 0.0000000000000000e+00
0.0000000000000000e+00 1.4707145294364000e+01 0.0000000000000000e+00
0.0000000000000000e+00 1.8073037030847999e+01 0.0000000000000000e+00
ITEM: ATOMS id type mass x y z
1 1 15.9994 1.35657 1.70874 3.2419
2 2 1.008 1.40638 2.69074 3.08564
3 2 1.008 0.468728 1.49719 2.99755
4 1 15.9994 5.72003 5.11377 1.02727
5 2 1.008 5.96383 5.17154 1.96568
6 2 1.008 5.73888 4.15688 0.824029
7 1 15.9994 6.57418 5.68515 3.56878
8 2 1.008 6.0798 5.39364 4.3605
9 2 1.008 6.4948 6.64832 3.45007
10 1 15.9994 5.21033 4.56435 5.65282
11 2 1.008 4.31035 4.90367 5.74162
12 2 1.008 5.64087 4.82549 6.49553
13 1 15.9994 2.55621 0.97742 5.61861
14 2 1.008 2.24375 1.17112 4.70675
15 2 1.008 3.52558 1.18528 5.60867
16 1 15.9994 2.56583 5.35846 5.62692
17 2 1.008 2.4489 6.31311 5.60152
18 2 1.008 2.07312 5.08951 6.43116
19 1 15.9994 5.38236 2.38351 0.851329
20 2 1.008 4.43587 2.23323 0.760871
21 2 1.008 5.55184 2.00429 1.74368
22 1 15.9994 5.25039 1.71055 5.56223
23 2 1.008 5.72218 1.45121 6.37557
24 2 1.008 5.18993 2.68358 5.57102
25 1 15.9994 1.31426 4.58153 7.84714
26 2 1.008 1.28661 3.60988 7.85135
27 2 1.008 1.63418 4.86454 8.73583
28 1 15.9994 1.46365 4.30883 3.22788
29 2 1.008 2.04097 4.68768 2.53492
30 2 1.008 1.77187 4.69808 4.0537
31 1 15.9994 2.96554 5.54255 1.29878
32 2 1.008 2.73184 6.47293 1.36762
33 2 1.008 3.89351 5.53996 1.01443
34 1 15.9994 2.8556 1.07579 0.89798
35 2 1.008 2.21421 1.2831 1.5875
36 2 1.008 3.08068 0.154296 1.08548
37 1 15.9994 6.41144 1.05643 3.08669
38 2 1.008 6.05423 1.2448 3.97144
39 2 1.008 7.34521 1.38375 3.09465
40 1 15.9994 6.56186 1.06406 7.72418
41 2 1.008 6.18189 1.62287 8.43099
42 2 1.008 7.52739 1.02338 7.92539
43 1 15.9994 6.47962 5.46526 7.95976
44 2 1.008 7.39339 5.12428 7.86961
45 2 1.008 6.55213 6.43725 8.04822
46 1 15.9994 1.29859 1.68102 7.79051
47 2 1.008 1.74746 1.40709 6.93751
48 2 1.008 0.470632 1.16821 7.84525
49 1 15.9994 9.18755 1.9291 3.25935
50 2 1.008 9.014 2.88394 3.26588
51 2 1.008 9.62317 1.78631 2.40853
52 1 15.9994 13.132 4.78126 1.16567
53 2 1.008 13.2608 2.83007 1.68088
54 2 1.008 13.5294 4.90398 0.29603
55 1 15.9994 14.6318 5.73567 3.2962
56 2 1.008 15.3501 5.19456 3.56172
57 2 1.008 13.7519 5.05684 1.86421
58 1 15.9994 12.9017 4.77847 5.43563
59 2 1.008 13.1447 5.15913 4.57437
60 2 1.008 11.9592 5.02242 5.63704
61 1 15.9994 10.3859 0.883266 5.50618
62 2 1.008 9.96204 1.2632 4.70427
63 2 1.008 11.3312 1.03894 5.33351
64 1 15.9994 10.3353 5.61518 5.65897
65 2 1.008 9.90735 5.36153 4.78749
66 2 1.008 10.3328 6.57806 5.73136
67 1 15.9994 13.1667 1.87431 1.60969
68 2 1.008 11.3715 1.72738 1.17855
69 2 1.008 13.4225 1.52343 2.45036
70 1 15.9994 13.026 2.03838 5.20813
71 2 1.008 13.8731 2.05321 6.92989
72 2 1.008 12.9462 3.01244 5.38895
73 1 15.9994 9.06974 4.50168 7.85549
74 2 1.008 9.11592 2.57051 7.84563
75 2 1.008 9.63539 4.72507 7.09385
76 1 15.9994 9.08397 4.74737 3.44641
77 2 1.008 8.19872 5.17164 3.33472
78 2 1.008 9.54348 4.85631 2.60624
79 1 15.9994 10.2835 5.26982 0.959633
80 2 1.008 9.93024 4.68285 0.255457
81 2 1.008 11.2068 4.9939 1.24227
82 1 15.9994 10.495 2.04898 0.86209
83 2 1.008 10.1553 1.54028 0.123633
84 2 1.008 14.8692 1.63917 5.14256
85 1 15.9994 14.2453 1.98344 4.49049
86 2 1.008 14.1507 2.06692 8.43685
87 2 1.008 13.724 5.11591 7.01471
88 1 15.9994 14.5941 2.24158 7.57968
89 2 1.008 13.1097 3.00992 9.9477
90 2 1.008 12.4441 1.59109 9.91195
91 1 15.9994 14.3837 5.15491 7.7526
92 2 1.008 14.7967 4.2804 7.75925
93 2 1.008 14.3792 7.05428 7.83905
94 1 15.9994 9.36832 1.64704 7.96945
95 2 1.008 9.61971 1.31622 7.07727
96 2 1.008 10.3738 1.04807 9.30227
97 1 15.9994 1.48505 9.3433 3.41421
98 2 1.008 1.88964 8.94451 4.21226
99 2 1.008 1.60718 10.3056 3.49106
100 1 15.9994 5.3156 11.6206 1.03207
101 2 1.008 5.24405 10.6973 0.774262
102 2 1.008 3.72096 12.3223 0.996006
103 1 15.9994 6.61717 12.6805 3.3539
104 2 1.008 7.57303 12.3955 3.3693
105 2 1.008 5.66153 11.67 1.93232
106 1 15.9994 5.11342 11.8001 5.59815
107 2 1.008 6.12159 12.1564 7.16918
108 2 1.008 5.55162 12.2469 4.84498
109 1 15.9994 2.53558 8.21998 5.55213
110 2 1.008 3.5186 8.42187 5.66689
111 2 1.008 2.12395 8.5356 6.37102
112 1 15.9994 2.50269 12.9857 5.60751
113 2 1.008 2.53481 13.9203 5.78822
114 2 1.008 4.29724 12.2736 5.77399
115 1 15.9994 5.32822 8.67644 1.03849
116 2 1.008 4.36722 8.62789 1.08165
117 2 1.008 5.6102 7.99845 0.432864
118 1 15.9994 5.20267 9.05536 5.70837
119 2 1.008 5.64334 8.97729 4.83755
120 2 1.008 5.06953 10.0261 5.81356
121 1 15.9994 1.30283 11.8355 7.88871
122 2 1.008 1.15595 10.0643 7.85252
123 2 1.008 1.62434 12.3045 7.07622
124 1 15.9994 1.35244 12.2291 3.23815
125 2 1.008 0.427138 12.2452 3.05514
126 2 1.008 2.00817 12.8038 4.80701
127 1 15.9994 2.92428 12.9132 1.09762
128 2 1.008 2.55276 12.9005 0.185392
129 2 1.008 1.8609 12.4903 2.41583
130 1 15.9994 2.70383 8.51334 1.20298
131 2 1.008 1.91379 8.04533 0.798276
132 2 1.008 2.2925 8.69236 2.09056
133 1 15.9994 6.56933 8.46453 3.38266
134 2 1.008 7.47275 8.83727 3.33753
135 2 1.008 6.16201 8.58157 2.47884
136 1 15.9994 6.49162 8.2822 7.93503
137 2 1.008 6.03858 8.63459 7.12541
138 2 1.008 7.43414 8.31743 7.75328
139 1 15.9994 6.55047 12.4897 7.99398
140 2 1.008 5.61868 13.9531 9.24775
141 2 1.008 7.50793 12.2495 7.97196
142 1 15.9994 1.23931 9.08394 7.89466
143 2 1.008 0.36822 8.67121 7.84811
144 2 1.008 2.19191 8.50022 9.29107
145 1 15.9994 9.18772 9.29582 3.36745
146 2 1.008 9.53777 8.75622 2.61333
147 2 1.008 9.63078 8.99176 4.19466
148 1 15.9994 13.1504 11.76 1.07635
149 2 1.008 13.2105 10.8787 1.47642
150 2 1.008 12.1967 11.9051 0.927257
151 1 15.9994 14.1387 13.0792 3.33784
152 2 1.008 13.4973 12.3003 4.76916
153 2 1.008 13.8479 12.6358 2.52103
154 1 15.9994 13.0524 11.769 5.47851
155 2 1.008 12.1788 12.1686 5.62793
156 2 1.008 13.9579 11.7366 7.18681
157 1 15.9994 10.4028 8.40776 5.62443
158 2 1.008 11.3794 8.51482 5.66678
159 2 1.008 10.0718 8.62485 6.50832
160 1 15.9994 10.4697 12.9069 5.5227
161 2 1.008 10.0889 12.6961 4.63191
162 2 1.008 10.3472 13.8723 5.62087
163 1 15.9994 13.2015 8.95075 1.32335
164 2 1.008 13.6161 8.66525 0.515918
165 2 1.008 13.7167 8.60817 2.06738
166 1 15.9994 13.1702 9.07951 5.75952
167 2 1.008 13.958 8.68953 4.4155
168 2 1.008 13.2308 10.074 5.86958
169 1 15.9994 9.23933 11.7884 7.85731
170 2 1.008 9.71443 12.092 7.08079
171 2 1.008 9.71834 12.0911 8.66685
172 1 15.9994 9.16593 11.8792 3.29259
173 2 1.008 9.20745 10.8729 3.33922
174 2 1.008 9.53266 12.138 2.40676
175 1 15.9994 10.3533 12.5378 0.800973
176 2 1.008 10.0053 11.927 0.119464
177 2 1.008 10.2313 13.319 0.232777
178 1 15.9994 10.3357 8.15296 1.20466
179 2 1.008 10.2246 7.18373 1.25531
180 2 1.008 11.2962 8.31702 1.34466
181 1 15.9994 14.578 8.37087 3.68762
182 2 1.008 14.7662 6.65656 3.57812
183 2 1.008 15.4317 8.84726 3.7447
184 1 15.9994 14.4338 8.00513 7.81308
185 2 1.008 13.772 8.62163 6.40247
186 2 1.008 14.1167 8.33843 8.6718
187 1 15.9994 14.5956 11.6104 7.9043
188 2 1.008 14.0358 11.5263 8.66255
189 2 1.008 14.5448 13.9231 7.48067
190 1 15.9994 9.12012 9.0435 7.92167
191 2 1.008 9.13775 10.0123 8.04745
192 2 1.008 9.5798 8.65984 8.69551
193 1 15.9994 1.17982 1.91151 12.4043
194 2 1.008 2.15733 1.36844 10.8946
195 2 1.008 0.234096 1.71252 12.352
196 1 15.9994 5.16995 4.49448 10.1859
197 2 1.008 5.55872 4.81201 11.0308
198 2 1.008 5.73737 4.83431 9.45946
199 1 15.9994 6.48703 5.51366 12.4009
200 2 1.008 6.0871 5.30614 13.2876
201 2 1.008 6.62816 6.50143 12.3913
202 1 15.9994 5.13424 4.70991 14.7431
203 2 1.008 5.20476 2.85475 14.7208
204 2 1.008 4.20627 5.02119 14.7557
205 1 15.9994 2.47498 1.51259 14.7876
206 2 1.008 2.28749 2.30077 15.3158
207 2 1.008 1.9301 1.62008 13.9752
208 1 15.9994 2.57021 5.59282 14.7718
209 2 1.008 2.47766 6.56565 14.7387
210 2 1.008 2.07599 5.24106 15.5086
211 1 15.9994 5.33811 1.71949 10.3773
212 2 1.008 4.39779 1.45495 10.3286
213 2 1.008 5.31656 2.6978 10.3241
214 1 15.9994 5.32167 1.88478 14.8003
215 2 1.008 6.34678 1.41433 16.1814
216 2 1.008 4.44665 1.50474 14.5591
217 1 15.9994 1.7868 4.51337 17.1816
218 2 1.008 1.56174 3.57781 17.4025
219 2 1.008 2.41498 4.83776 17.8857
220 1 15.9994 1.29713 4.58564 12.4124
221 2 1.008 1.24143 2.8895 12.2341
222 2 1.008 1.7896 5.15121 13.0485
223 1 15.9994 2.57401 5.46689 10.1128
224 2 1.008 1.54076 4.93589 11.5341
225 2 1.008 3.53483 5.26836 10.0847
226 1 15.9994 2.69576 0.970009 10.1684
227 2 1.008 2.30502 1.26436 9.33105
228 2 1.008 6.40547 1.27333 11.7583
229 1 15.9994 6.9816 1.04448 12.5009
230 2 1.008 6.47466 1.32662 13.286
231 2 1.008 8.6163 1.43018 12.4399
232 1 15.9994 6.82606 1.06152 16.972
233 2 1.008 6.47476 1.62537 17.6722
234 2 1.008 8.34275 1.82833 16.9421
235 1 15.9994 6.26351 5.85881 16.949
236 2 1.008 5.50977 4.98783 15.5899
237 2 1.008 7.17091 5.57425 17.2325
238 1 15.9994 1.2169 1.7618 17.4057
239 2 1.008 0.482985 1.87252 16.7426
240 2 1.008 1.93913 1.18216 17.1168
241 1 15.9994 9.49079 1.8405 12.5122
242 2 1.008 9.26689 2.80014 12.4673
243 2 1.008 10.2836 1.2027 10.8323
244 1 15.9994 12.8431 4.80685 9.9944
245 2 1.008 13.301 5.15323 10.7855
246 2 1.008 13.3513 5.12635 9.22466
247 1 15.9994 14.1037 5.16663 12.5041
248 2 1.008 14.7064 4.41708 12.4625
249 2 1.008 13.4128 4.98315 13.1711
250 1 15.9994 12.5269 4.77267 14.6411
251 2 1.008 13.0725 4.90624 15.4514
252 2 1.008 12.351 3.82049 14.528
253 1 15.9994 10.9056 1.3168 14.6806
254 2 1.008 10.433 1.51776 13.8322
255 2 1.008 9.66801 1.92583 16.1154
256 1 15.9994 10.0655 5.81103 14.601
257 2 1.008 9.33425 5.13622 13.1945
258 2 1.008 10.9937 5.51013 14.5773
259 1 15.9994 13.3376 2.03596 9.98419
260 2 1.008 13.8957 2.15879 11.6149
261 2 1.008 13.659 2.28683 13.1023
262 1 15.9994 12.1647 2.00406 14.4666
263 2 1.008 14.6504 0.776414 16.1917
264 2 1.008 12.7198 1.77384 15.2441
265 1 15.9994 8.84914 5.03462 17.1058
266 2 1.008 8.74311 4.10973 16.8215
267 2 1.008 9.11304 5.48357 16.244
268 1 15.9994 9.10287 4.61217 12.3783
269 2 1.008 8.13981 4.69931 12.3288
270 2 1.008 9.84297 5.06065 10.9615
271 1 15.9994 10.2734 5.52812 10.2013
272 2 1.008 9.55947 4.85286 8.63653
273 2 1.008 11.2187 5.26932 10.1585
274 1 15.9994 10.8808 0.913709 10.1271
275 2 1.008 10.3241 7.187 10.2637
276 2 1.008 11.4495 8.32016 10.209
277 1 15.9994 14.3769 2.33642 12.4682
278 2 1.008 13.452 0.855622 17.2033
279 2 1.008 14.8674 4.62997 17.17
280 1 15.9994 13.8901 1.34057 16.4738
281 2 1.008 14.3479 6.20889 16.9977
282 2 1.008 13.848 8.46184 16.1232
283 1 15.9994 14.3837 5.28079 16.6122
284 2 1.008 15.2103 8.37176 16.8413
285 2 1.008 13.9175 8.73045 13.953
286 1 15.9994 9.21997 2.25707 16.9292
287 2 1.008 6.22514 6.79906 17.0884
288 2 1.008 10.1422 6.76968 14.6139
289 1 15.9994 1.53663 9.26302 12.4396
290 2 1.008 2.05508 8.93121 11.6667
291 2 1.008 1.47007 10.2189 12.3117
292 1 15.9994 5.25295 11.751 10.1998
293 2 1.008 5.6679 12.2305 9.46604
294 2 1.008 4.36511 12.1221 10.258
295 1 15.9994 6.70825 12.8198 12.3418
296 2 1.008 6.18917 12.7784 13.1763
297 2 1.008 6.13102 12.4759 11.6232
298 1 15.9994 5.18451 12.1823 14.6508
299 2 1.008 5.24999 10.2637 14.4233
300 2 1.008 4.26177 12.4535 14.7496
301 1 15.9994 2.57832 8.34576 14.6464
302 2 1.008 2.16824 8.73717 13.8437
303 2 1.008 3.53258 8.5642 14.5936
304 1 15.9994 2.53455 13.1777 14.7971
305 2 1.008 2.53464 14.1276 14.9969
306 2 1.008 1.90813 12.7702 15.4409
307 1 15.9994 5.34281 9.01625 10.2039
308 2 1.008 5.32329 9.99885 10.1137
309 2 1.008 5.67401 8.7084 9.33578
310 1 15.9994 5.20252 9.29084 14.5099
311 2 1.008 6.07647 9.11576 16.0922
312 2 1.008 5.65195 8.93053 13.6869
313 1 15.9994 1.49148 12.1899 16.893
314 2 1.008 1.54526 11.1934 16.9362
315 2 1.008 0.548347 12.3774 17.0463
316 1 15.9994 1.37943 12.2735 12.4185
317 2 1.008 0.423708 12.2441 12.602
318 2 1.008 1.88131 12.6022 13.1897
319 1 15.9994 2.69496 13.0276 10.1197
320 2 1.008 2.03427 12.8342 10.7843
321 2 1.008 1.64032 12.3453 8.61734
322 1 15.9994 2.61602 8.17815 10.1095
323 2 1.008 2.49583 6.45162 10.0735
324 2 1.008 3.58513 8.3314 10.0447
325 1 15.9994 6.55496 8.29086 12.4645
326 2 1.008 7.43221 8.68267 12.3333
327 2 1.008 6.09892 8.49728 11.6276
328 1 15.9994 6.40423 9.16247 17.015
329 2 1.008 7.35528 8.96516 16.9147
330 2 1.008 9.58028 8.83623 17.7613
331 1 15.9994 6.52884 12.1836 17.1767
332 2 1.008 5.58009 12.2202 15.5499
333 2 1.008 6.45702 11.2037 17.34
334 1 15.9994 1.46997 9.49038 16.8484
335 2 1.008 1.75001 9.04807 17.6408
336 2 1.008 1.97365 9.08977 16.099
337 1 15.9994 9.2346 9.28714 12.2507
338 2 1.008 9.83134 8.78754 11.6341
339 2 1.008 9.49905 9.0003 13.154
340 1 15.9994 12.9863 11.6486 10.3178
341 2 1.008 13.1857 9.8326 10.3644
342 2 1.008 12.1567 12.1354 10.332
343 1 15.9994 14.4693 12.6747 12.4
344 2 1.008 13.4982 12.0317 11.0548
345 2 1.008 14.8942 13.5223 12.3794
346 1 15.9994 13.1119 11.9713 14.695
347 2 1.008 13.8606 12.6588 13.1473
348 2 1.008 12.1459 12.1435 14.6297
349 1 15.9994 10.5125 8.52539 14.5343
350 2 1.008 11.4552 8.80665 14.5161
351 2 1.008 10.1936 8.75483 15.4107
352 1 15.9994 10.4572 12.8849 14.5808
353 2 1.008 10.0083 12.5022 13.8076
354 2 1.008 9.59261 12.118 16.003
355 1 15.9994 13.1669 8.86105 10.2087
356 2 1.008 13.5375 8.4111 10.9866
357 2 1.008 15.5663 8.09227 12.3105
358 1 15.9994 13.2502 9.10157 14.535
359 2 1.008 13.5228 10.0315 14.6591
360 2 1.008 14.6024 6.80952 12.4434
361 1 15.9994 9.27359 11.9356 16.9053
362 2 1.008 8.32844 12.0767 17.0073
363 2 1.008 9.28975 10.2379 17.1276
364 1 15.9994 9.16438 11.9754 12.3897
365 2 1.008 8.25675 12.3307 12.3577
366 2 1.008 9.08563 10.9984 12.2499
367 1 15.9994 10.4276 12.8168 10.2075
368 2 1.008 10.3945 13.7713 10.2721
369 2 1.008 9.80413 12.4512 10.9017
370 1 15.9994 10.4788 8.15262 10.1778
371 2 1.008 5.25391 14.2269 9.79598
372 2 1.008 10.4569 13.8187 14.4083
373 1 15.9994 14.6503 7.78993 12.4263
374 2 1.008 13.3696 12.0998 15.6375
375 2 1.008 13.9207 12.2672 17.934
376 1 15.9994 14.2965 8.01341 16.867
377 2 1.008 14.3055 13.6552 17.4782
378 2 1.008 6.22681 12.5721 18.0595
379 1 15.9994 14.2674 12.7728 17.126
380 2 1.008 14.5515 14.6387 7.32082
381 2 1.008 14.8594 13.7002 3.18352
382 1 15.9994 9.31653 9.25898 16.9523
383 2 1.008 2.7838 13.9851 10.1535
384 2 1.008 6.5918 13.6375 3.37324
ITEM: TIMESTEP
200
ITEM: NUMBER OF ATOMS
384
ITEM: BOX BOUNDS xy xz yz pp pp pp
0.0000000000000000e+00 1.5645677531129000e+01 0.0000000000000000e+00
0.0000000000000000e+00 1.4707145294364000e+01 0.0000000000000000e+00
0.0000000000000000e+00 1.8073037030847999e+01 0.0000000000000000e+00
ITEM: ATOMS id type mass x y z
1 1 15.9994 1.3367 1.65324 3.27599
2 2 1.008 1.38598 2.64826 3.30656
3 2 1.008 0.510013 1.43921 2.87037
4 1 15.9994 5.70166 5.10329 1.18663
5 2 1.008 5.94854 5.05012 2.12829
6 2 1.008 5.75293 4.17799 0.882197
7 1 15.9994 6.58395 5.72285 3.53367
8 2 1.008 6.17869 5.44554 4.37253
9 2 1.008 6.50452 6.71889 3.52443
10 1 15.9994 5.22842 4.57176 5.70942
11 2 1.008 4.32033 4.87147 5.77799
12 2 1.008 5.71149 4.88219 6.51908
13 1 15.9994 2.55971 1.02056 5.60539
14 2 1.008 2.16797 1.22982 4.70626
15 2 1.008 3.49091 1.29546 5.65599
16 1 15.9994 2.57863 5.38189 5.62218
17 2 1.008 2.4498 6.33352 5.60318
18 2 1.008 2.19902 5.07606 6.47768
19 1 15.9994 5.37113 2.35954 0.939114
20 2 1.008 4.45986 2.11292 0.739897
21 2 1.008 5.60381 1.93181 1.79379
22 1 15.9994 5.25804 1.70338 5.53901
23 2 1.008 5.85854 1.464 6.26017
24 2 1.008 5.17193 2.6601 5.61121
25 1 15.9994 1.39221 4.57746 7.85807
26 2 1.008 1.50235 3.61317 7.90489
27 2 1.008 1.7988 4.90517 8.69856
28 1 15.9994 1.48001 4.25793 3.25362
29 2 1.008 2.09526 4.62226 2.5746
30 2 1.008 1.88953 4.50995 4.09306
31 1 15.9994 2.9987 5.49879 1.34184
32 2 1.008 2.8223 6.39383 1.60948
33 2 1.008 3.96863 5.4372 1.33006
34 1 15.9994 2.88843 1.0683 0.953634
35 2 1.008 2.20484 1.32123 1.56236
36 2 1.008 3.12233 0.165304 1.16639