ITEM: TIMESTEP
5000
ITEM: NUMBER OF ATOMS
384
ITEM: BOX BOUNDS xy xz yz pp pp pp
0.0000000000000000e+00 1.5645677531129000e+01 0.0000000000000000e+00
0.0000000000000000e+00 1.4707145294364000e+01 0.0000000000000000e+00
0.0000000000000000e+00 1.8073037030847999e+01 0.0000000000000000e+00
ITEM: ATOMS id type mass x y z
1 1 15.9994 1.05341 2.14039 3.02567
2 2 1.008 1.06803 3.05634 3.40731
3 2 1.008 0.330795 1.72459 3.50725
4 1 15.9994 5.39355 3.96088 0.970575
5 2 1.008 5.84119 4.20024 1.78853
6 2 1.008 5.42531 2.95722 0.841093
7 1 15.9994 5.9724 5.7747 3.18281
8 2 1.008 5.69821 5.55125 4.12285
9 2 1.008 6.14432 6.71925 3.16056
10 1 15.9994 5.48925 4.86782 5.78412
11 2 1.008 4.51332 4.99611 5.895
12 2 1.008 5.88636 5.28299 6.56911
13 1 15.9994 3.09627 1.13995 5.07687
14 2 1.008 2.69055 1.51702 4.27405
15 2 1.008 3.96797 1.47038 5.17978
16 1 15.9994 2.79586 5.55931 5.83304
17 2 1.008 2.59389 6.51599 5.76603
18 2 1.008 2.36716 5.22955 6.68986
19 1 15.9994 5.12727 1.21386 0.829921
20 2 1.008 4.16368 1.05585 0.803452
21 2 1.008 5.42759 0.950121 1.7144
22 1 15.9994 5.48053 2.20086 5.57305
23 2 1.008 6.08648 1.73194 6.1841
24 2 1.008 5.66971 3.14304 5.5927
25 1 15.9994 1.70027 4.52977 8.04601
26 2 1.008 1.81671 3.55373 8.08399
27 2 1.008 1.94633 4.83633 8.92831
28 1 15.9994 1.34286 4.75715 3.76044
29 2 1.008 1.87955 5.02014 2.9892
30 2 1.008 1.98601 4.86954 4.47971
31 1 15.9994 2.43219 5.01221 1.30476
32 2 1.008 3.35771 4.79996 1.11131
33 2 1.008 1.97302 4.64018 0.556431
34 1 15.9994 2.13345 0.828574 0.668074
35 2 1.008 2.00937 1.3853 1.47191
36 2 1.008 1.93303 14.6581 0.925398
37 1 15.9994 6.41204 0.965256 3.34043
38 2 1.008 6.19872 1.50756 4.13414
39 2 1.008 7.41526 1.09532 3.37581
40 1 15.9994 6.91443 0.888005 7.43861
41 2 1.008 6.3901 1.0734 8.25738
42 2 1.008 6.79039 14.6376 7.27326
43 1 15.9994 6.55675 5.88657 8.01188
44 2 1.008 7.41479 5.55881 8.33358
45 2 1.008 6.36983 6.83844 7.99688
46 1 15.9994 1.75311 1.82269 7.34956
47 2 1.008 2.21578 1.48586 6.57549
48 2 1.008 0.886993 1.49891 7.53645
49 1 15.9994 9.24409 2.08912 3.64392
50 2 1.008 9.15307 3.01186 3.42181
51 2 1.008 9.6601 1.64195 2.88885
52 1 15.9994 13.1904 4.67309 0.763049
53 2 1.008 12.9998 3.18865 0.840477
54 2 1.008 13.5439 4.97436 17.9754
55 1 15.9994 14.5288 5.62284 2.91009
56 2 1.008 15.4024 5.2811 3.22839
57 2 1.008 13.9223 4.90032 1.41168
58 1 15.9994 13.2207 4.55569 5.33946
59 2 1.008 13.5889 5.05088 4.54139
60 2 1.008 12.2686 4.71818 5.42863
61 1 15.9994 10.9154 0.785799 5.52759
62 2 1.008 10.4797 1.32447 4.84755
63 2 1.008 11.8672 0.838382 5.29543
64 1 15.9994 10.5495 5.1569 5.54734
65 2 1.008 9.87443 4.7646 4.98954
66 2 1.008 10.5239 6.08741 5.37041
67 1 15.9994 12.9025 2.17761 0.841074
68 2 1.008 11.3387 1.47736 1.04202
69 2 1.008 13.3395 1.90283 1.66163
70 1 15.9994 13.5573 1.79941 4.78049
71 2 1.008 13.9353 1.37483 8.58003
72 2 1.008 13.5811 2.70654 5.13405
73 1 15.9994 8.77525 4.40902 8.56042
74 2 1.008 8.7093 1.26156 7.68134
75 2 1.008 9.13475 3.72081 7.99006
76 1 15.9994 8.75888 4.9034 3.32657
77 2 1.008 7.84788 5.20158 3.05304
78 2 1.008 9.37054 5.18434 2.65646
79 1 15.9994 10.5923 5.74194 1.27148
80 2 1.008 10.0445 5.37238 0.556864
81 2 1.008 11.5532 5.38156 1.15817
82 1 15.9994 10.4718 1.12477 1.35041
83 2 1.008 9.90093 1.12103 0.568126
84 2 1.008 14.8018 1.0838 6.19003
85 1 15.9994 14.7933 1.13578 5.25248
86 2 1.008 14.6102 0.0365263 8.22163
87 2 1.008 14.0141 4.9853 6.7576
88 1 15.9994 14.5925 0.957261 7.97944
89 2 1.008 12.9285 3.32673 10.2072
90 2 1.008 12.2348 1.88252 10.2986
91 1 15.9994 14.424 5.22716 7.63592
92 2 1.008 15.246 4.82284 7.82965
93 2 1.008 14.0243 6.91269 8.19017
94 1 15.9994 9.66245 1.40356 7.83626
95 2 1.008 10.1119 1.11442 6.9784
96 2 1.008 10.4077 1.34523 9.34715
97 1 15.9994 0.987794 9.14087 3.41664
98 2 1.008 1.52059 8.90687 4.21876
99 2 1.008 0.942197 10.1215 3.37123
100 1 15.9994 4.56362 12.1254 1.20363
101 2 1.008 4.46212 11.1612 1.2951
102 2 1.008 2.92294 12.7465 1.09819
103 1 15.9994 6.29236 12.8666 3.48201
104 2 1.008 7.17866 12.5167 3.58216
105 2 1.008 4.83588 12.3966 2.0875
106 1 15.9994 4.98682 12.0286 5.6175
107 2 1.008 6.12081 12.5405 6.86521
108 2 1.008 5.41148 12.2378 4.73108
109 1 15.9994 2.49581 8.2069 5.62236
110 2 1.008 3.42203 8.56059 5.72941
111 2 1.008 2.0095 8.49099 6.42032
112 1 15.9994 2.36523 12.923 5.33193
113 2 1.008 2.54149 13.8612 5.32071
114 2 1.008 4.00907 12.187 5.53346
115 1 15.9994 4.63948 9.44148 0.751502
116 2 1.008 3.9192 8.75777 0.819278
117 2 1.008 5.19219 9.14452 0.0211049
118 1 15.9994 5.07433 9.2681 5.52544
119 2 1.008 5.46624 9.11341 4.60301
120 2 1.008 5.06432 10.2785 5.60498
121 1 15.9994 2.68018 11.181 7.40363
122 2 1.008 1.20883 10.0992 7.94731
123 2 1.008 2.23324 11.9013 6.96679
124 1 15.9994 0.686014 12.2266 3.47188
125 2 1.008 15.3893 12.4193 3.34114
126 2 1.008 1.69956 12.6617 4.67858
127 1 15.9994 1.93377 12.8361 1.09638
128 2 1.008 1.62756 12.4842 0.200443
129 2 1.008 1.09828 12.6031 2.615
130 1 15.9994 2.55644 7.76967 1.31094
131 2 1.008 2.4242 6.84925 1.33517
132 2 1.008 2.05992 8.05233 2.07134
133 1 15.9994 6.20059 8.77087 2.95956
134 2 1.008 7.11732 9.0628 2.95073
135 2 1.008 5.79533 8.829 2.07059
136 1 15.9994 6.1577 8.61666 7.76096
137 2 1.008 5.80766 8.65953 6.82818
138 2 1.008 7.11071 8.81758 7.62532
139 1 15.9994 6.8235 12.9643 7.43547
140 2 1.008 3.45644 14.3741 12.2089
141 2 1.008 7.72307 12.6425 7.18663
142 1 15.9994 1.17434 9.13567 8.08652
143 2 1.008 0.247525 8.8987 8.11738
144 2 1.008 2.41229 8.7919 9.19395
145 1 15.9994 9.03026 9.46478 3.33897
146 2 1.008 9.54692 9.03984 2.65878
147 2 1.008 9.34174 8.93392 4.10705
148 1 15.9994 12.6155 11.6079 1.64584
149 2 1.008 12.6392 10.6897 1.31352
150 2 1.008 11.6731 11.96 1.73901
151 1 15.9994 14.1593 13.7667 2.61583
152 2 1.008 13.3791 10.8227 3.83462
153 2 1.008 13.4169 13.16 2.50957
154 1 15.9994 13.3526 11.1536 4.72702
155 2 1.008 12.5805 11.7706 4.83682
156 2 1.008 14.5032 11.3404 6.61081
157 1 15.9994 10.2132 8.21195 5.36249
158 2 1.008 11.1786 8.26012 5.54864
159 2 1.008 9.75648 8.3516 6.22766
160 1 15.9994 11.016 12.641 5.16804
161 2 1.008 10.1919 12.5142 4.69302
162 2 1.008 11.0139 13.6046 5.39306
163 1 15.9994 12.8451 8.98733 0.640675
164 2 1.008 13.4231 8.71969 17.9586
165 2 1.008 13.2545 8.52762 1.45112
166 1 15.9994 12.9869 8.57104 5.81483
167 2 1.008 13.5231 8.07573 3.88838
168 2 1.008 13.2463 9.50042 5.84186
169 1 15.9994 9.68354 11.5888 7.44187
170 2 1.008 10.2767 11.7863 6.6954
171 2 1.008 10.0704 12.0606 8.23278
172 1 15.9994 8.77215 12.1097 3.49681
173 2 1.008 8.90964 11.1761 3.42913
174 2 1.008 9.21463 12.4168 2.65652
175 1 15.9994 10.2429 13.0483 1.37334
176 2 1.008 10.1286 13.0386 0.403871
177 2 1.008 10.4073 13.9849 1.53995
178 1 15.9994 10.174 8.32644 1.06978
179 2 1.008 10.2793 7.36283 1.12817
180 2 1.008 11.1283 8.50929 0.819957
181 1 15.9994 14.1181 8.25511 3.0907
182 2 1.008 14.5713 6.61841 2.8974
183 2 1.008 14.9657 8.61427 3.42153
184 1 15.9994 14.0571 7.89276 8.15848
185 2 1.008 13.2915 8.14578 6.6498
186 2 1.008 13.5155 8.32375 8.88239
187 1 15.9994 14.5928 11.441 7.55149
188 2 1.008 13.7023 11.2888 7.89888
189 2 1.008 12.7461 13.6179 6.71052
190 1 15.9994 8.91535 9.00935 7.76822
191 2 1.008 9.18655 9.95417 7.80666
192 2 1.008 9.23597 8.64718 8.63905
193 1 15.9994 1.42143 2.01253 12.4326
194 2 1.008 2.10167 1.06245 10.9775
195 2 1.008 0.439105 1.82674 12.5715
196 1 15.9994 5.25655 4.50548 10.1871
197 2 1.008 5.79197 4.92665 10.8981
198 2 1.008 5.63468 4.78287 9.31762
199 1 15.9994 6.50618 5.93317 12.3221
200 2 1.008 6.02511 5.47816 13.0624
201 2 1.008 6.13056 6.87152 12.3983
202 1 15.9994 5.50542 4.77826 14.3964
203 2 1.008 5.6102 2.8127 14.7912
204 2 1.008 4.53269 4.78747 14.3897
205 1 15.9994 2.87062 1.31958 14.7173
206 2 1.008 2.06071 1.4037 15.2623
207 2 1.008 2.51387 1.52501 13.8544
208 1 15.9994 3.14989 5.74733 15.7343
209 2 1.008 2.90343 6.63391 15.4928
210 2 1.008 3.94727 5.84958 16.3245
211 1 15.9994 5.30044 1.6736 9.97759
212 2 1.008 4.42273 1.34411 9.89039
213 2 1.008 5.28383 2.6621 9.97438
214 1 15.9994 5.48514 1.85144 14.8426
215 2 1.008 6.25975 0.740877 15.8645
216 2 1.008 4.50552 1.72235 14.8672
217 1 15.9994 1.11341 4.33551 16.7648
218 2 1.008 0.890748 3.37063 16.626
219 2 1.008 1.72964 4.63467 16.0748
220 1 15.9994 1.83051 4.94137 12.9387
221 2 1.008 1.54542 2.981 12.3508
222 2 1.008 2.35756 5.29601 13.7144
223 1 15.9994 2.85471 5.95179 10.5398
224 2 1.008 2.13915 5.46273 12.1673
225 2 1.008 3.71499 5.52707 10.3183
226 1 15.9994 2.62628 0.859443 10.1535
227 2 1.008 2.03385 0.917592 9.37821
228 2 1.008 6.35653 1.75595 11.2224
229 1 15.9994 6.85119 1.84775 12.0755
230 2 1.008 6.47691 1.15497 12.6597
231 2 1.008 8.47711 1.95969 12.2997
232 1 15.9994 6.73252 0.331252 16.628
233 2 1.008 6.13436 0.539506 17.3436
234 2 1.008 8.17035 1.11825 16.9528
235 1 15.9994 5.83273 5.74018 16.9962
236 2 1.008 5.7096 5.16465 15.2876
237 2 1.008 5.89148 5.10939 17.735
238 1 15.9994 0.790007 1.59128 16.5016
239 2 1.008 15.5423 1.23538 16.5737
240 2 1.008 1.23992 1.38004 17.3442
241 1 15.9994 9.47136 2.24585 12.5001
242 2 1.008 9.45416 3.23498 12.5274
243 2 1.008 10.2179 1.46114 10.8526
244 1 15.9994 13.245 4.97197 10.2516
245 2 1.008 13.8506 5.27603 10.9414
246 2 1.008 13.599 4.95985 9.3588
247 1 15.9994 14.7345 5.3807 12.5302
248 2 1.008 15.5883 5.03704 12.8445
249 2 1.008 14.0172 5.0316 13.1082
250 1 15.9994 12.8054 4.53902 14.1381
251 2 1.008 13.1334 4.81794 14.9845
252 2 1.008 12.4125 3.6651 14.2434
253 1 15.9994 10.775 1.50607 14.7265
254 2 1.008 10.3389 1.6917 13.8745
255 2 1.008 9.64057 1.35805 16.4495
256 1 15.9994 10.2223 5.78779 15.2285
257 2 1.008 9.16864 5.03336 13.7406
258 2 1.008 11.0645 5.66468 14.7621
259 1 15.9994 13.0413 2.35558 10.2507
260 2 1.008 14.1027 1.70961 11.7117
261 2 1.008 13.8926 1.43991 13.1894
262 1 15.9994 12.1786 1.77767 14.4379
263 2 1.008 13.5476 14.4946 16.7753
264 2 1.008 12.6449 1.29315 15.1287
265 1 15.9994 9.27673 4.38184 17.3086
266 2 1.008 9.24756 3.37071 17.3798
267 2 1.008 9.49231 4.60862 16.3905
268 1 15.9994 9.17851 5.18096 12.7923
269 2 1.008 8.25477 5.38425 12.6344
270 2 1.008 10.1659 5.28036 11.3556
271 1 15.9994 10.5141 5.50317 10.5412
272 2 1.008 9.35732 4.52301 9.31684
273 2 1.008 11.4637 5.24973 10.6346
274 1 15.9994 10.765 1.05025 10.1969
275 2 1.008 10.0392 7.32323 10.4272
276 2 1.008 11.0768 8.51804 10.2453
277 1 15.9994 14.5279 1.22568 12.4363
278 2 1.008 13.2204 1.17486 17.4146
279 2 1.008 15.3034 4.98174 16.7247
280 1 15.9994 13.6612 0.782691 16.6025
281 2 1.008 14.5289 6.31613 16.4025
282 2 1.008 14.0036 8.62313 15.8459
283 1 15.9994 14.4182 5.38289 16.533
284 2 1.008 15.3498 8.41055 16.8698
285 2 1.008 13.5548 9.00886 13.9498
286 1 15.9994 9.03114 1.51849 17.1892
287 2 1.008 6.40872 6.48024 17.1334
288 2 1.008 10.1294 6.75275 15.2181
289 1 15.9994 1.66541 9.23706 12.3459
290 2 1.008 2.0565 8.95431 11.4905
291 2 1.008 1.70549 10.1947 12.3153
292 1 15.9994 6.20413 12.6892 10.0978
293 2 1.008 6.64555 12.906 9.28299
294 2 1.008 5.17386 12.7546 9.96222
295 1 15.9994 7.20985 13.1482 12.6161
296 2 1.008 6.56349 12.7473 13.2378
297 2 1.008 6.78357 13.0652 11.7358
298 1 15.9994 5.74105 12.4094 14.8487
299 2 1.008 5.3506 10.5184 14.3668
300 2 1.008 4.86799 12.8519 15.0925
301 1 15.9994 2.58335 8.41409 14.865
302 2 1.008 2.28337 8.63471 13.9668
303 2 1.008 3.42702 8.87322 14.8671
304 1 15.9994 2.94213 13.2503 14.9242
305 2 1.008 2.90095 14.1978 15.0115
306 2 1.008 2.39036 12.8142 15.6456
307 1 15.9994 5.56839 9.7983 9.88388
308 2 1.008 5.7692 10.7365 9.8836
309 2 1.008 5.88119 9.45421 9.00822
310 1 15.9994 5.03136 9.63555 14.3863
311 2 1.008 5.88137 8.99071 15.7923
312 2 1.008 5.24748 9.17446 13.5155
313 1 15.9994 1.33035 11.8985 16.7558
314 2 1.008 1.508 10.9379 16.9556
315 2 1.008 0.380754 11.9523 16.7533
316 1 15.9994 1.80178 11.9372 12.3142
317 2 1.008 0.883514 12.2387 12.1977
318 2 1.008 2.07959 12.4288 13.1717
319 1 15.9994 3.4821 12.7191 10.054
320 2 1.008 3.12377 12.2673 10.8465
321 2 1.008 2.92717 11.6433 8.24711
322 1 15.9994 2.84151 8.59072 10.0479
323 2 1.008 3.0115 6.93308 10.3479
324 2 1.008 3.7118 9.01499 10.0808
325 1 15.9994 6.08171 8.59684 12.1656
326 2 1.008 6.99417 8.81004 12.3708
327 2 1.008 5.82536 8.93794 11.3156
328 1 15.9994 6.25468 8.57007 16.6437
329 2 1.008 7.1964 8.89223 16.7749
330 2 1.008 9.4193 9.00569 17.893
331 1 15.9994 6.71487 11.5775 17.6758
332 2 1.008 6.37415 12.603 15.5596
333 2 1.008 6.25062 10.982 17.0947
334 1 15.9994 1.24642 9.09525 17.1442
335 2 1.008 1.65866 8.57325 17.823
336 2 1.008 1.64921 8.80801 16.2858
337 1 15.9994 8.81191 8.98075 12.6503
338 2 1.008 9.24875 8.71155 11.8228
339 2 1.008 9.24382 8.55368 13.3794
340 1 15.9994 12.526 11.5601 11.3367
341 2 1.008 12.5618 10.2095 10.5461
342 2 1.008 11.8447 12.1877 11.0521
343 1 15.9994 14.7032 13.02 12.7153
344 2 1.008 13.2448 12.0803 11.7213
345 2 1.008 14.4175 13.9288 12.5509
346 1 15.9994 13.4674 12.2378 15.1151
347 2 1.008 14.3876 12.8074 13.6391
348 2 1.008 12.5028 12.5364 15.0768
349 1 15.9994 10.3651 8.48996 14.929
350 2 1.008 11.2359 8.92604 14.8952
351 2 1.008 9.87803 8.95436 15.628
352 1 15.9994 10.9587 13.106 14.4319
353 2 1.008 10.5423 12.713 13.6347
354 2 1.008 9.62257 12.707 16.0966
355 1 15.9994 12.6315 9.22652 10.3391
356 2 1.008 13.0528 8.77619 11.0735
357 2 1.008 15.3726 8.64141 12.5446
358 1 15.9994 13.066 9.39069 14.6802
359 2 1.008 13.3484 10.3272 14.7415
360 2 1.008 14.6544 7.22335 12.4999
361 1 15.9994 9.24936 13.0861 16.971
362 2 1.008 8.37374 12.6092 16.9482
363 2 1.008 8.70766 10.3513 17.5967
364 1 15.9994 9.47888 11.9417 12.3206
365 2 1.008 8.61503 12.373 12.4023
366 2 1.008 9.36163 10.9405 12.3582
367 1 15.9994 10.5272 12.9077 9.86187
368 2 1.008 10.5796 13.8662 10.0003
369 2 1.008 9.91671 12.5875 10.5814
370 1 15.9994 10.068 8.25838 10.1733
371 2 1.008 3.79066 0.285316 12.1634
372 2 1.008 10.7857 14.0717 14.3481
373 1 15.9994 14.4455 8.19133 12.586
374 2 1.008 13.7449 12.3874 16.0666
375 2 1.008 13.7652 12.4601 0.284871
376 1 15.9994 14.396 8.2258 16.6737
377 2 1.008 14.8011 13.5711 0.344191
378 2 1.008 6.09565 12.052 0.163905
379 1 15.9994 14.3531 12.9766 17.8251
380 2 1.008 13.2264 13.4247 6.16653
381 2 1.008 13.822 14.3398 3.35093
382 1 15.9994 8.98006 9.51676 17.2151
383 2 1.008 3.15032 13.6813 10.1925
384 2 1.008 6.36806 13.8159 3.70508
ITEM: TIMESTEP
5100
ITEM: NUMBER OF ATOMS
384
ITEM: BOX BOUNDS xy xz yz pp pp pp
0.0000000000000000e+00 1.5645677531129000e+01 0.0000000000000000e+00
0.0000000000000000e+00 1.4707145294364000e+01 0.0000000000000000e+00
0.0000000000000000e+00 1.8073037030847999e+01 0.0000000000000000e+00
ITEM: ATOMS id type mass x y z
1 1 15.9994 1.03322 2.1121 3.04429
2 2 1.008 0.97533 3.00693 3.47696
3 2 1.008 0.488716 1.48653 3.50812
4 1 15.9994 5.36017 3.95894 0.915734
5 2 1.008 5.85436 4.36321 1.64547
6 2 1.008 5.58487 2.98196 0.847261
7 1 15.9994 6.02324 5.78484 3.19826
8 2 1.008 5.88913 5.6569 4.18014
9 2 1.008 6.22064 6.72236 3.07442
10 1 15.9994 5.47046 4.84879 5.83856
11 2 1.008 4.54003 5.19334 5.76182
12 2 1.008 5.8105 5.02992 6.71224
13 1 15.9994 3.05819 1.17262 5.08083
14 2 1.008 2.63684 1.64888 4.33886
15 2 1.008 3.93227 1.47168 5.15862
16 1 15.9994 2.83734 5.59958 5.84939
17 2 1.008 2.71523 6.56787 5.78016
18 2 1.008 2.41029 5.26311 6.70765
19 1 15.9994 5.17042 1.19106 0.799196
20 2 1.008 4.2149 1.01943 0.85713
21 2 1.008 5.57248 1.13565 1.68831
22 1 15.9994 5.50948 2.18552 5.5604
23 2 1.008 6.13505 1.71267 6.14892
24 2 1.008 5.5898 3.13334 5.73036
25 1 15.9994 1.73331 4.53407 7.9915
26 2 1.008 1.85887 3.58038 8.05066
27 2 1.008 1.94351 5.02419 8.78053
28 1 15.9994 1.32745 4.7217 3.75917
29 2 1.008 1.85509 4.76626 2.95486
30 2 1.008 1.78024 5.01006 4.564
31 1 15.9994 2.41695 4.99011 1.31352
32 2 1.008 3.31991 4.73291 1.1014
33 2 1.008 1.8543 4.81572 0.569425
34 1 15.9994 2.11902 0.840432 0.665596
35 2 1.008 2.02797 1.33412 1.51047
36 2 1.008 2.13254 14.6332 0.877741
37 1 15.9994 6.40593 1.04013 3.35523
38 2 1.008 6.0132 1.52802 4.11858
39 2 1.008 7.39487 1.15082 3.30456
40 1 15.9994 6.94211 0.907941 7.38578
41 2 1.008 6.41116 1.14656 8.17223
42 2 1.008 6.9414 14.6286 7.34876
43 1 15.9994 6.62694 5.91124 7.95623
44 2 1.008 7.56608 5.71967 8.14982
45 2 1.008 6.52213 6.8463 8.1314
46 1 15.9994 1.74003 1.84171 7.34699
47 2 1.008 2.1488 1.46562 6.54611
48 2 1.008 0.882918 1.4577 7.27682
49 1 15.9994 9.24415 2.09052 3.66844
50 2 1.008 9.10002 3.01811 3.41905
51 2 1.008 9.67206 1.72262 2.86192
52 1 15.9994 13.2062 4.70598 0.754154
53 2 1.008 13.0368 3.13599 0.828869
54 2 1.008 13.6196 4.97886 17.9927
55 1 15.9994 14.5077 5.58049 2.90904
56 2 1.008 15.4502 5.42952 3.18303
57 2 1.008 13.6844 5.12247 1.5348
58 1 15.9994 13.2235 4.5482 5.35189
59 2 1.008 13.5614 4.98699 4.49457
60 2 1.008 12.274 4.74285 5.35597
61 1 15.9994 10.9075 0.758932 5.51445
62 2 1.008 10.281 1.2705 4.98759
63 2 1.008 11.7855 1.1715 5.38381
64 1 15.9994 10.5025 5.12784 5.50723
65 2 1.008 9.91579 4.82481 4.79538
66 2 1.008 10.3918 6.05307 5.4087
67 1 15.9994 12.9338 2.14463 0.810911
68 2 1.008 11.3048 1.49858 1.14362
69 2 1.008 13.4666 1.75077 1.53146
70 1 15.9994 13.5793 1.79688 4.85805
71 2 1.008 14.0731 1.30147 8.69425
72 2 1.008 13.6839 2.72591 5.12242
73 1 15.9994 8.78902 4.33891 8.66197
74 2 1.008 8.64535 1.32801 7.52596
75 2 1.008 9.20242 3.59282 8.2151
76 1 15.9994 8.71738 4.91266 3.27627
77 2 1.008 7.75787 5.17674 3.08707
78 2 1.008 9.29728 5.19043 2.56357
79 1 15.9994 10.5433 5.76434 1.28354
80 2 1.008 10.0859 5.27232 0.563753
81 2 1.008 11.5113 5.41612 1.09534
82 1 15.9994 10.4354 1.09079 1.32829
83 2 1.008 9.86229 1.35466 0.602952
84 2 1.008 14.5063 1.16506 6.19893
85 1 15.9994 14.7265 1.15482 5.29722
86 2 1.008 14.5671 -0.0361535 8.07072
87 2 1.008 14.155 4.94362 6.7815
88 1 15.9994 14.679 0.893094 8.03052
89 2 1.008 12.9606 3.33779 10.3495
90 2 1.008 12.1616 2.05159 10.3789
91 1 15.9994 14.4126 5.28167 7.67973
92 2 1.008 15.315 4.97887 7.72605
93 2 1.008 14.137 6.92081 8.08147
94 1 15.9994 9.59179 1.44778 7.74699
95 2 1.008 10.1759 1.04721 7.03022
96 2 1.008 10.3358 1.24339 9.37287
97 1 15.9994 0.970374 9.10883 3.44452
98 2 1.008 1.43347 8.94509 4.30384
99 2 1.008 0.908901 10.0706 3.35184
100 1 15.9994 4.54496 12.0729 1.22262
101 2 1.008 4.45471 11.1167 1.16821
102 2 1.008 2.93303 12.708 1.19224
103 1 15.9994 6.30519 12.8483 3.42679
104 2 1.008 7.23228 12.5546 3.44661
105 2 1.008 5.09084 12.2995 2.00246
106 1 15.9994 4.96927 12.0343 5.58882
107 2 1.008 6.09731 12.5402 6.86974
108 2 1.008 5.42962 12.2618 4.7305
109 1 15.9994 2.47884 8.21505 5.64477
110 2 1.008 3.37904 8.61978 5.59027
111 2 1.008 2.10683 8.56885 6.46902
112 1 15.9994 2.39334 12.9171 5.30478
113 2 1.008 2.64785 13.8529 5.23447
114 2 1.008 4.0101 12.2219 5.45176
115 1 15.9994 4.68154 9.40675 0.790962
116 2 1.008 3.87197 8.80374 0.838348
117 2 1.008 5.21646 9.14374 0.0397544
118 1 15.9994 5.05494 9.2557 5.49828
119 2 1.008 5.32626 8.98051 4.56743
120 2 1.008 5.22894 10.2414 5.63187
121 1 15.9994 2.75318 11.1756 7.47426
122 2 1.008 1.1129 10.1167 7.887
123 2 1.008 2.3738 11.847 6.93107
124 1 15.9994 0.650496 12.2231 3.44449
125 2 1.008 15.4656 12.6942 3.29888
126 2 1.008 1.66075 12.8447 4.67018
127 1 15.9994 1.9451 12.8378 1.12549
128 2 1.008 1.74412 12.4952 0.199
129 2 1.008 1.22293 12.3755 2.62247
130 1 15.9994 2.5567 7.78266 1.35662
131 2 1.008 2.59859 6.85553 1.38567
132 2 1.008 2.15138 8.16784 2.11408
133 1 15.9994 6.23858 8.79159 2.97708
134 2 1.008 7.17886 8.91294 2.79924
135 2 1.008 5.74445 8.95225 2.15258
136 1 15.9994 6.16362 8.57657 7.75371
137 2 1.008 5.73841 8.61331 6.85835
138 2 1.008 7.13419 8.74498 7.67929
139 1 15.9994 6.84333 12.9337 7.41555
140 2 1.008 3.47478 14.1456 12.1767
141 2 1.008 7.6352 12.4043 7.15054
142 1 15.9994 1.126 9.17854 8.09591
143 2 1.008 0.24661 8.79002 8.22657
144 2 1.008 2.37502 8.86604 9.19519
145 1 15.9994 9.05539 9.39265 3.35005
146 2 1.008 9.41002 9.06242 2.52745
147 2 1.008 9.55344 9.04378 4.1198
148 1 15.9994 12.6412 11.6067 1.63502
149 2 1.008 12.5193 10.7077 1.26158
150 2 1.008 11.7147 12.0228 1.64614
151 1 15.9994 14.1944 13.8636 2.61014
152 2 1.008 13.434 10.876 3.80483
153 2 1.008 13.6142 13.1517 2.31917
154 1 15.9994 13.3876 11.1728 4.71789
155 2 1.008 12.5637 11.7307 4.67837
156 2 1.008 14.4709 11.5555 6.59579
157 1 15.9994 10.2372 8.23582 5.35782
158 2 1.008 11.1578 8.38729 5.6822
159 2 1.008 9.64875 8.37349 6.14013
160 1 15.9994 11.0079 12.6273 5.20577
161 2 1.008 10.2691 12.3716 4.63244
162 2 1.008 10.918 13.5941 5.33694
163 1 15.9994 12.8305 9.03805 0.65187
164 2 1.008 13.3172 8.70261 17.9253
165 2 1.008 13.2437 8.60324 1.45182
166 1 15.9994 12.9958 8.60052 5.78567
167 2 1.008 13.4933 8.24504 3.95694
168 2 1.008 13.0755 9.56864 5.66511
169 1 15.9994 9.69821 11.5732 7.45642
170 2 1.008 10.4373 11.6666 6.86872
171 2 1.008 9.94805 12.0447 8.30799
172 1 15.9994 8.82825 12.1421 3.4931
173 2 1.008 8.88358 11.1976 3.45711
174 2 1.008 9.15568 12.5369 2.64315
175 1 15.9994 10.22 13.0616 1.36874
176 2 1.008 9.98827 12.8641 0.441862
177 2 1.008 10.4268 14.0193 1.38114
178 1 15.9994 10.1568 8.3507 1.07079
179 2 1.008 10.2311 7.39334 1.22494
180 2 1.008 11.0622 8.70688 0.869053
181 1 15.9994 14.0788 8.21371 3.12196
182 2 1.008 14.3606 6.56411 2.97761
183 2 1.008 14.9303 8.60601 3.43086
184 1 15.9994 14.0516 7.90202 8.20283
185 2 1.008 13.3842 8.40431 6.68273
186 2 1.008 13.5069 8.08853 8.99752
187 1 15.9994 14.6008 11.4352 7.55261
188 2 1.008 13.7625 11.1032 7.88703
189 2 1.008 12.7699 13.5773 6.80388
190 1 15.9994 8.88355 8.98558 7.76186
191 2 1.008 9.19509 9.91123 7.73187
192 2 1.008 9.29931 8.55664 8.55525
193 1 15.9994 1.42023 1.99965 12.4153
194 2 1.008 2.13822 1.13527 10.9223
195 2 1.008 0.439137 1.87842 12.5676
196 1 15.9994 5.24765 4.49219 10.1752
197 2 1.008 5.87649 4.92367 10.8002
198 2 1.008 5.74156 4.63834 9.33556
199 1 15.9994 6.58584 5.91734 12.2642
200 2 1.008 6.13878 5.36909 12.9471
201 2 1.008 6.25998 6.86971 12.1859
202 1 15.9994 5.47424 4.79854 14.3811
203 2 1.008 5.69561 2.74261 14.7673
204 2 1.008 4.56831 4.67132 14.6747
205 1 15.9994 2.85373 1.28759 14.6961
206 2 1.008 2.09502 1.26184 15.3154
207 2 1.008 2.51514 1.4895 13.8361
208 1 15.9994 3.12145 5.7606 15.837
209 2 1.008 2.89952 6.67693 15.6928
210 2 1.008 4.01199 5.75174 16.2803
211 1 15.9994 5.29993 1.65669 9.94794
212 2 1.008 4.41305 1.28816 9.94063
213 2 1.008 5.0859 2.62332 9.88559
214 1 15.9994 5.48668 1.81737 14.8262
215 2 1.008 6.30894 0.746989 15.8418
216 2 1.008 4.50274 1.68299 14.8194
217 1 15.9994 1.04708 4.36023 16.7951
218 2 1.008 1.09909 3.37612 16.6963
219 2 1.008 1.84968 4.71039 16.3432
220 1 15.9994 1.89529 4.95472 12.928
221 2 1.008 1.60697 2.96556 12.389
222 2 1.008 2.20817 5.44497 13.7045
223 1 15.9994 2.8186 5.98588 10.5117
224 2 1.008 2.28126 5.34706 12.1067
225 2 1.008 3.64697 5.52554 10.3023
226 1 15.9994 2.63963 0.824872 10.1281
227 2 1.008 2.00154 0.733106 9.39909
228 2 1.008 6.16938 1.77782 11.4003
229 1 15.9994 6.83962 1.90563 12.1081
230 2 1.008 6.60484 1.25826 12.7884
231 2 1.008 8.43527 2.1795 12.5001
232 1 15.9994 6.67338 0.318521 16.6491
233 2 1.008 6.13716 0.5957 17.3776
234 2 1.008 8.14442 0.973492 17.0336
235 1 15.9994 5.81064 5.75227 16.9501
236 2 1.008 5.95306 5.19579 15.1409
237 2 1.008 5.79413 5.13657 17.708
238 1 15.9994 0.80807 1.61175 16.5694
239 2 1.008 15.5401 1.37112 16.7436
240 2 1.008 1.29948 1.39656 17.389
241 1 15.9994 9.4754 2.29427 12.5368
242 2 1.008 9.5729 3.28698 12.5733
243 2 1.008 10.2387 1.41795 10.9069
244 1 15.9994 13.1786 5.02519 10.2134
245 2 1.008 13.9973 5.11151 10.7322
246 2 1.008 13.5559 4.81256 9.36164
247 1 15.9994 14.7942 5.35149 12.4719
248 2 1.008 15.68 5.01413 12.66
249 2 1.008 14.1562 4.84722 13.0099
250 1 15.9994 12.7866 4.55203 14.17
251 2 1.008 13.1795 4.83043 15.0058
252 2 1.008 12.4654 3.65377 14.3711
253 1 15.9994 10.7799 1.49035 14.8241
254 2 1.008 10.3079 1.62578 13.9897
255 2 1.008 9.49562 1.29244 16.3617
256 1 15.9994 10.168 5.74814 15.2449
257 2 1.008 9.23116 5.11572 13.7326
258 2 1.008 11.0208 5.50924 14.7813
259 1 15.9994 13.0244 2.3676 10.2371
260 2 1.008 14.0066 1.56477 11.6975
261 2 1.008 13.9067 1.17729 13.2479
262 1 15.9994 12.1269 1.80623 14.4344
263 2 1.008 13.6944 14.4817 16.8139
264 2 1.008 12.5789 1.35861 15.1527
265 1 15.9994 9.26048 4.35015 17.2911
266 2 1.008 9.19527 3.33179 17.2768
267 2 1.008 9.62249 4.66341 16.4501
268 1 15.9994 9.09511 5.15703 12.7824
269 2 1.008 8.24191 5.51629 12.5469
270 2 1.008 10.1405 5.54083 11.3581
271 1 15.9994 10.528 5.59594 10.5346
272 2 1.008 9.43877 4.6135 9.33174
273 2 1.008 11.3913 5.10277 10.4913
274 1 15.9994 10.7739 1.05298 10.2154
275 2 1.008 10.1925 7.32527 10.3209
276 2 1.008 11.0713 8.61547 10.1922
277 1 15.9994 14.5101 1.16203 12.4213
278 2 1.008 13.3882 1.28869 17.3969
279 2 1.008 15.2933 5.00817 16.4044
280 1 15.9994 13.6579 0.755494 16.5842
281 2 1.008 14.5093 6.35581 16.4596
282 2 1.008 14.1515 8.78967 15.9358
283 1 15.9994 14.4064 5.41167 16.5502
284 2 1.008 15.2332 8.55242 16.9613
285 2 1.008 13.5616 8.96103 13.93
286 1 15.9994 8.98954 1.45477 17.1867
287 2 1.008 6.25168 6.56755 17.1484
288 2 1.008 10.0687 6.69219 15.1439
289 1 15.9994 1.64301 9.25642 12.381
290 2 1.008 2.14842 8.83188 11.659
291 2 1.008 1.76011 10.2036 12.291
292 1 15.9994 6.1454 12.6571 10.1489
293 2 1.008 6.4397 12.9123 9.26103
294 2 1.008 5.13917 12.9053 10.1107
295 1 15.9994 7.27409 13.1538 12.5956
296 2 1.008 6.59828 12.8243 13.2143
297 2 1.008 6.91482 13.2019 11.6905
298 1 15.9994 5.74737 12.3831 14.9019
299 2 1.008 5.26529 10.5883 14.4464
300 2 1.008 4.7936 12.687 14.9856
301 1 15.9994 2.58001 8.32154 14.8829
302 2 1.008 2.31888 8.3478 13.9679
303 2 1.008 3.4865 8.6283 14.9092
304 1 15.9994 2.94022 13.2149 14.9186
305 2 1.008 2.97869 14.1653 14.9771
306 2 1.008 2.3487 12.8707 15.6472
307 1 15.9994 5.48728 9.81629 9.89635
308 2 1.008 5.72814 10.7512 10.0647
309 2 1.008 5.86702 9.48042 9.04095
310 1 15.9994 5.05232 9.65358 14.467
311 2 1.008 6.02557 8.76031 15.6743
312 2 1.008 5.42199 9.29119 13.6059
313 1 15.9994 1.30005 11.9057 16.7971
314 2 1.008 1.25131 10.9134 16.8834
315 2 1.008 0.397343 12.2264 16.7339
316 1 15.9994 1.78429 12.012 12.3302
317 2 1.008 1.04705 12.6151 12.1253
318 2 1.008 2.20668 12.3496 13.1751
319 1 15.9994 3.48448 12.7033 10.0188
320 2 1.008 3.13408 12.0868 10.7329
321 2 1.008 2.94596 11.4943 8.36069
322 1 15.9994 2.88924 8.54993 9.97139
323 2 1.008 2.87834 6.96659 10.254
324 2 1.008 3.6748 9.08361 10.0197
325 1 15.9994 6.04643 8.59733 12.1222
326 2 1.008 6.92408 8.99071 12.2423
327 2 1.008 5.83786 8.99355 11.2682
328 1 15.9994 6.30591 8.57526 16.6276
329 2 1.008 7.28519 8.82914 16.6793
330 2 1.008 9.36765 9.04338 17.9417
331 1 15.9994 6.7851 11.5705 17.6449
332 2 1.008 6.15717 12.6164 15.7658
333 2 1.008 6.10866 10.9997 17.285
334 1 15.9994 1.20298 9.13981 17.1299
335 2 1.008 1.67587 8.64411 17.7827
336 2 1.008 1.60849 8.90275 16.254
337 1 15.9994 8.84282 9.00403 12.633
338 2 1.008 9.21119 8.56766 11.8547
339 2 1.008 9.4237 8.76291 13.3682
340 1 15.9994 12.5338 11.6491 11.3167
341 2 1.008 12.5648 10.1546 10.7058
342 2 1.008 11.9429 12.3284 10.9415
343 1 15.9994 14.67 12.9855 12.705
344 2 1.008 13.3094 12.0522 11.6956
345 2 1.008 14.5319 13.9128 12.6263
346 1 15.9994 13.4325 12.2282 15.1002
347 2 1.008 14.3752 12.7079 13.6122
348 2 1.008 12.4379 12.4248 15.0459
349 1 15.9994 10.4314 8.50141 14.9312
350 2 1.008 11.2906 8.92524 14.6988
351 2 1.008 9.93554 9.10206 15.4974
352 1 15.9994 10.9359 13.0965 14.4458
353 2 1.008 10.4998 12.6414 13.6943
354 2 1.008 9.64588 12.8936 15.9594
355 1 15.9994 12.6948 9.21597 10.329
356 2 1.008 13.2063 8.86156 11.054
357 2 1.008 15.437 8.51497 12.4849
358 1 15.9994 13.1236 9.38627 14.6724
359 2 1.008 13.2948 10.3258 14.6255
360 2 1.008 14.5029 7.1834 12.6016
361 1 15.9994 9.27277 13.0516 16.89
362 2 1.008 8.34467 12.769 17.0824
363 2 1.008 8.72949 10.4068 17.6152
364 1 15.9994 9.51419 11.9355 12.3528
365 2 1.008 8.64699 12.3763 12.4826
366 2 1.008 9.22875 10.9598 12.3564
367 1 15.9994 10.5634 12.9395 9.88588
368 2 1.008 10.5704 13.9018 10.0315
369 2 1.008 10.1049 12.5371 10.6612
370 1 15.9994 10.084 8.27323 10.1336
371 2 1.008 3.73269 0.167745 12.2418
372 2 1.008 10.8501 14.0874 14.3504
373 1 15.9994 14.4712 8.18674 12.5518
374 2 1.008 13.7802 12.329 16.0227
375 2 1.008 13.6874 12.4707 0.229836
376 1 15.9994 14.3508 8.19731 16.7003
377 2 1.008 14.5778 13.6154 0.391726
378 2 1.008 6.20285 12.0764 0.148377
379 1 15.9994 14.336 12.9483 17.804
380 2 1.008 13.0885 13.3135 6.19728
381 2 1.008 13.9083 14.2458 3.42229
382 1 15.9994 8.97583 9.5384 17.2241
383 2 1.008 3.10867 13.6308 10.2108
384 2 1.008 6.31467 13.8262 3.45811
ITEM: TIMESTEP
5200
ITEM: NUMBER OF ATOMS
384
ITEM: BOX BOUNDS xy xz yz pp pp pp
0.0000000000000000e+00 1.5645677531129000e+01 0.0000000000000000e+00
0.0000000000000000e+00 1.4707145294364000e+01 0.0000000000000000e+00
0.0000000000000000e+00 1.8073037030847999e+01 0.0000000000000000e+00
ITEM: ATOMS id type mass x y z
1 1 15.9994 1.02589 2.06643 3.06099
2 2 1.008 0.837562 2.9114 3.54301
3 2 1.008 0.580947 1.4222 3.62183
4 1 15.9994 5.3263 3.9883 0.855367
5 2 1.008 5.71308 4.37999 1.66921
6 2 1.008 5.53143 3.01166 0.881208
7 1 15.9994 6.08528 5.79785 3.21038
8 2 1.008 6.13073 5.60544 4.18055
9 2 1.008 6.10553 6.76734 3.09941
10 1 15.9994 5.44575 4.82552 5.86743
11 2 1.008 4.5113 5.19035 5.91731
12 2 1.008 5.86788 5.21828 6.65116
13 1 15.9994 3.01524 1.19156 5.07611
14 2 1.008 2.58062 1.70787 4.38154
15 2 1.008 3.83973 1.58321 5.25524
16 1 15.9994 2.88041 5.63249 5.84501
17 2 1.008 2.76744 6.60062 5.92174
18 2 1.008 2.51276 5.23575 6.70807
19 1 15.9994 5.22579 1.17855 0.778681
20 2 1.008 4.28016 0.97844 0.873105
21 2 1.008 5.58387 1.09482 1.69002
22 1 15.9994 5.54267 2.17078 5.53685
23 2 1.008 6.02216 1.71934 6.26562
24 2 1.008 5.38658 3.09514 5.74957
25 1 15.9994 1.74041 4.55842 7.94955
26 2 1.008 1.91292 3.61769 7.95214
27 2 1.008 2.0872 4.88332 8.78042
28 1 15.9994 1.28726 4.68393 3.76365
29 2 1.008 1.93958 4.62857 3.07539
30 2 1.008 1.80401 5.12948 4.46126
31 1 15.9994 2.42277 4.9835 1.30398
32 2 1.008 3.18997 4.44203 1.09266
33 2 1.008 1.84825 4.84847 0.558999
34 1 15.9994 2.14038 0.855966 0.685611