ITEM: TIMESTEP
100
ITEM: NUMBER OF ATOMS
384
ITEM: BOX BOUNDS xy xz yz pp pp pp
0.0000000000000000e+00 1.5645677531129000e+01 0.0000000000000000e+00
0.0000000000000000e+00 1.4707145294364000e+01 0.0000000000000000e+00
0.0000000000000000e+00 1.8073037030847999e+01 0.0000000000000000e+00
ITEM: ATOMS id type mass x y z
1 1 15.9994 1.32349 1.77945 3.34005
2 2 1.008 1.27738 2.7734 3.28223
3 2 1.008 0.410847 1.45936 3.31309
4 1 15.9994 5.2848 4.5767 1.12389
5 2 1.008 5.7433 4.95338 1.92756
6 2 1.008 5.78509 4.88249 0.324763
7 1 15.9994 6.52243 5.52034 3.37365
8 2 1.008 6.05736 5.24695 4.21218
9 2 1.008 6.48654 6.52239 3.34826
10 1 15.9994 5.24074 4.55277 5.6499
11 2 1.008 4.35104 4.90175 5.66699
12 2 1.008 5.73003 4.8813 6.44844
13 1 15.9994 2.61746 0.878517 5.57916
14 2 1.008 2.1975 1.18675 4.71775
15 2 1.008 3.52226 1.21286 5.57202
16 1 15.9994 2.62437 5.47302 5.62454
17 2 1.008 2.58902 6.44087 5.65139
18 2 1.008 2.13667 5.16425 6.4755
19 1 15.9994 5.26097 1.79952 1.12465
20 2 1.008 5.25854 2.82711 1.13847
21 2 1.008 5.68992 1.49153 1.96498
22 1 15.9994 5.24528 1.78447 5.62338
23 2 1.008 5.7053 1.46398 6.47051
24 2 1.008 5.25437 2.75324 5.6484
25 1 15.9994 1.35682 4.53702 7.90022
26 2 1.008 1.351 3.56278 7.88889
27 2 1.008 1.77316 4.85193 8.7467
28 1 15.9994 1.33948 4.52912 3.36222
29 2 1.008 1.84366 4.84683 2.55763
30 2 1.008 1.73361 4.89026 4.1734
31 1 15.9994 2.65336 5.43403 1.13227
32 2 1.008 2.61763 6.40781 1.1028
33 2 1.008 3.6143 5.22178 1.01883
34 1 15.9994 2.65166 0.881547 1.09684
35 2 1.008 2.18064 1.2065 1.88303
36 2 1.008 3.52806 1.25545 1.09485
37 1 15.9994 6.55205 0.848162 3.38142
38 2 1.008 6.11788 1.12952 4.21847
39 2 1.008 8.24906 1.54162 3.34746
40 1 15.9994 6.50935 0.833743 7.87814
41 2 1.008 6.04071 1.18919 8.66325
42 2 1.008 8.24122 1.37099 7.87367
43 1 15.9994 6.5585 5.49982 7.89753
44 2 1.008 7.48911 5.17433 7.85622
45 2 1.008 6.60635 6.49246 7.92996
46 1 15.9994 1.30786 1.73841 7.85126
47 2 1.008 1.73604 1.4461 7.02037
48 2 1.008 0.376272 1.39086 7.90627
49 1 15.9994 9.14696 1.81453 3.31373
50 2 1.008 9.06168 2.78937 3.302
51 2 1.008 9.95251 1.16916 1.86886
52 1 15.9994 13.0619 4.52609 1.06535
53 2 1.008 13.0867 3.50747 1.08497
54 2 1.008 13.5041 4.83628 0.255769
55 1 15.9994 14.3804 5.44141 3.33605
56 2 1.008 15.2703 5.096 3.32337
57 2 1.008 13.9057 5.04525 2.5231
58 1 15.9994 13.0656 4.5555 5.60786
59 2 1.008 13.4452 4.88132 4.76334
60 2 1.008 12.1678 4.85217 5.62787
61 1 15.9994 10.4573 0.898247 5.5598
62 2 1.008 9.983 1.26684 4.75035
63 2 1.008 11.3997 1.20034 5.57456
64 1 15.9994 10.434 5.45392 5.59385
65 2 1.008 10.0123 5.21251 4.78483
66 2 1.008 10.4371 6.40758 5.62551
67 1 15.9994 13.0795 1.75286 1.10658
68 2 1.008 12.1326 1.37885 1.10883
69 2 1.008 13.4985 1.37065 1.87158
70 1 15.9994 13.07 1.7818 5.63644
71 2 1.008 13.5015 1.45265 6.43336
72 2 1.008 13.0924 2.76481 5.72344
73 1 15.9994 9.15132 4.5067 7.83542
74 2 1.008 9.10271 3.50514 7.77574
75 2 1.008 9.64685 4.75789 7.0699
76 1 15.9994 9.13326 4.57963 3.32039
77 2 1.008 8.21587 4.95446 3.26338
78 2 1.008 9.60079 4.85342 2.53823
79 1 15.9994 10.4343 5.41296 1.05075
80 2 1.008 10.0424 5.0828 0.201719
81 2 1.008 11.3914 5.07064 1.10065
82 1 15.9994 10.4411 0.882266 1.08921
83 2 1.008 10.0157 1.20753 0.277051
84 2 1.008 13.8903 1.1373 4.20531
85 1 15.9994 14.3593 0.838437 3.39036
86 2 1.008 13.8501 1.16118 8.70175
87 2 1.008 13.9113 5.13688 7.041
88 1 15.9994 14.3568 0.848534 7.90104
89 2 1.008 13.0183 2.83544 10.1082
90 2 1.008 12.0912 1.57388 10.0935
91 1 15.9994 14.3944 5.4668 7.86254
92 2 1.008 15.3159 5.11496 7.82474
93 2 1.008 14.2686 7.24067 7.83057
94 1 15.9994 9.13938 1.7345 7.85664
95 2 1.008 9.55679 1.43052 7.01892
96 2 1.008 9.93209 1.16944 9.30162
97 1 15.9994 1.34655 9.12997 3.38291
98 2 1.008 1.79653 8.75808 4.1718
99 2 1.008 1.35251 10.1224 3.35814
100 1 15.9994 5.23451 11.8795 1.11565
101 2 1.008 5.14991 10.9085 1.03738
102 2 1.008 4.2818 12.1576 1.1676
103 1 15.9994 6.56267 12.8023 3.34801
104 2 1.008 7.49463 12.4691 3.30985
105 2 1.008 6.05854 12.4134 2.55993
106 1 15.9994 5.24796 11.9126 5.63023
107 2 1.008 5.72789 12.198 6.40394
108 2 1.008 5.72884 12.2929 4.85696
109 1 15.9994 2.63665 8.23313 5.61789
110 2 1.008 3.59224 8.55384 5.6713
111 2 1.008 2.20204 8.5871 6.46067
112 1 15.9994 2.62964 12.807 5.63357
113 2 1.008 2.65033 13.8027 5.62886
114 2 1.008 3.5921 12.5215 5.70305
115 1 15.9994 5.22362 9.11116 1.08651
116 2 1.008 4.31154 8.77744 1.05003
117 2 1.008 5.63048 8.77766 0.272716
118 1 15.9994 5.24005 9.16043 5.62379
119 2 1.008 5.67351 8.90591 4.80162
120 2 1.008 5.22302 10.1556 5.64748
121 1 15.9994 1.30672 11.8756 7.88229
122 2 1.008 1.33375 10.8981 7.82357
123 2 1.008 1.77156 12.2381 7.0678
124 1 15.9994 1.33426 11.9017 3.36958
125 2 1.008 0.444123 12.2522 3.39986
126 2 1.008 1.7604 12.2868 4.19456
127 1 15.9994 2.61785 12.8127 1.09411
128 2 1.008 2.58086 13.7909 1.15202
129 2 1.008 2.14831 12.5343 1.90474
130 1 15.9994 2.60715 8.20778 1.08525
131 2 1.008 2.11457 8.55863 0.292322
132 2 1.008 2.16977 8.50215 1.94367
133 1 15.9994 6.53935 8.26587 3.35304
134 2 1.008 7.44591 8.60001 3.30961
135 2 1.008 6.09771 8.59435 2.5208
136 1 15.9994 6.55009 8.26487 7.86561
137 2 1.008 6.10008 8.62789 7.06041
138 2 1.008 7.50302 8.50564 7.79482
139 1 15.9994 6.57352 12.7832 7.91168
140 2 1.008 6.12777 12.5126 8.73262
141 2 1.008 7.51893 12.4564 7.96327
142 1 15.9994 1.32214 9.1035 7.8897
143 2 1.008 0.398809 8.75662 7.90132
144 2 1.008 1.76618 8.73207 8.69784
145 1 15.9994 9.15189 9.11431 3.34705
146 2 1.008 9.59285 8.72302 2.57854
147 2 1.008 9.61189 8.80682 4.1805
148 1 15.9994 13.0452 11.8441 1.10497
149 2 1.008 13.0291 10.8965 1.21482
150 2 1.008 12.0944 12.1086 1.07702
151 1 15.9994 14.3737 12.7664 3.37455
152 2 1.008 13.8741 12.4507 4.14674
153 2 1.008 13.9033 12.4104 2.60028
154 1 15.9994 13.0398 11.8916 5.63022
155 2 1.008 12.1186 12.2587 5.68986
156 2 1.008 13.4679 12.2286 6.44885
157 1 15.9994 10.4469 8.22787 5.64276
158 2 1.008 11.3961 8.50936 5.59104
159 2 1.008 10.0039 8.52566 6.4404
160 1 15.9994 10.4486 12.8334 5.61173
161 2 1.008 10.013 12.5402 4.74744
162 2 1.008 10.4372 13.8317 5.59204
163 1 15.9994 13.0453 9.07523 1.09347
164 2 1.008 13.5153 8.81686 0.303522
165 2 1.008 13.5201 8.72638 1.86187
166 1 15.9994 13.0606 9.14055 5.60592
167 2 1.008 13.5276 8.86213 4.78961
168 2 1.008 13.1251 10.128 5.66738
169 1 15.9994 9.18944 11.9061 7.89401
170 2 1.008 9.64976 12.2126 7.10978
171 2 1.008 9.67145 12.2239 8.69263
172 1 15.9994 9.14952 11.8647 3.34282
173 2 1.008 9.17483 10.9132 3.32699
174 2 1.008 9.62187 12.1804 2.49658
175 1 15.9994 10.4532 12.7985 1.0696
176 2 1.008 9.9719 12.4609 0.272877
177 2 1.008 10.4579 13.7844 1.02947
178 1 15.9994 10.4453 8.17334 1.11955
179 2 1.008 10.4792 7.21629 1.15838
180 2 1.008 11.3801 8.47415 1.1526
181 1 15.9994 14.3604 8.2038 3.36019
182 2 1.008 14.3863 7.17212 3.3587
183 2 1.008 15.2909 8.54112 3.41411
184 1 15.9994 14.3303 8.21307 7.89489
185 2 1.008 13.9609 8.55638 7.03764
186 2 1.008 13.557 8.80389 9.38878
187 1 15.9994 14.3432 12.8052 7.92656
188 2 1.008 13.9598 12.3913 8.71206
189 2 1.008 15.2337 12.432 7.90743
190 1 15.9994 9.14469 9.14846 7.90446
191 2 1.008 9.20466 10.1641 8.02119
192 2 1.008 9.61046 8.81957 8.76009
193 1 15.9994 1.33539 1.74845 12.3912
194 2 1.008 1.72835 1.44906 11.5702
195 2 1.008 0.416087 1.45872 12.3347
196 1 15.9994 5.26502 4.53983 10.1485
197 2 1.008 5.70429 4.86942 10.965
198 2 1.008 5.78187 4.901 9.34651
199 1 15.9994 6.54826 5.48379 12.3986
200 2 1.008 6.11322 5.19275 13.2033
201 2 1.008 6.54475 6.49171 12.4118
202 1 15.9994 5.23116 4.51988 14.6591
203 2 1.008 5.15693 3.52529 14.6544
204 2 1.008 4.30861 4.84319 14.7283
205 1 15.9994 2.63859 0.865986 14.6579
206 2 1.008 2.12112 1.18457 15.4982
207 2 1.008 2.12615 1.25465 13.926
208 1 15.9994 2.63991 5.43563 14.7066
209 2 1.008 2.57887 6.42052 14.7108
210 2 1.008 2.1324 5.14783 15.4869
211 1 15.9994 5.23659 1.7769 10.1556
212 2 1.008 4.29081 1.49715 10.1356
213 2 1.008 5.26697 2.77351 10.1379
214 1 15.9994 5.24384 1.74924 14.6768
215 2 1.008 5.74296 1.42685 15.4445
216 2 1.008 4.29793 1.43087 14.644
217 1 15.9994 1.33584 4.521 16.9545
218 2 1.008 1.32435 3.52878 16.9883
219 2 1.008 1.84613 4.85835 17.7727
220 1 15.9994 1.37788 4.50218 12.4171
221 2 1.008 1.36276 3.50425 12.3597
222 2 1.008 1.90017 4.92339 13.1982
223 1 15.9994 2.64259 5.43506 10.1356
224 2 1.008 2.20701 5.1532 10.9541
225 2 1.008 3.60429 5.19491 10.1495
226 1 15.9994 2.64226 0.856762 10.1045
227 2 1.008 2.16352 1.16487 9.31367
228 2 1.008 6.07561 1.25633 11.6349
229 1 15.9994 6.55765 0.880088 12.3969
230 2 1.008 6.0792 1.2205 13.2315
231 2 1.008 8.21723 1.41144 12.3813
232 1 15.9994 6.56509 0.834086 16.9197
233 2 1.008 6.21852 1.17909 17.7688
234 2 1.008 8.21803 1.39811 16.8673
235 1 15.9994 6.5881 5.44248 16.9055
236 2 1.008 6.08727 5.04519 16.1277
237 2 1.008 7.52475 5.11696 16.9049
238 1 15.9994 1.3329 1.75801 16.9211
239 2 1.008 0.405978 1.41693 16.8855
240 2 1.008 1.78826 1.3517 17.7039
241 1 15.9994 9.1366 1.80379 12.4029
242 2 1.008 9.13354 2.80173 12.4158
243 2 1.008 9.88341 1.23896 10.9031
244 1 15.9994 13.055 4.58585 10.1081
245 2 1.008 13.5343 4.93757 10.9185
246 2 1.008 13.5507 4.94221 9.28096
247 1 15.9994 14.4114 5.42842 12.3939
248 2 1.008 15.3334 5.10679 12.4306
249 2 1.008 13.9141 5.02065 13.2036
250 1 15.9994 13.1005 4.50977 14.6465
251 2 1.008 13.5061 4.84852 15.4611
252 2 1.008 13.131 3.52823 14.6445
253 1 15.9994 10.4767 0.813949 14.6263
254 2 1.008 10.0332 1.16251 13.7999
255 2 1.008 9.57683 1.34721 16.0429
256 1 15.9994 10.5056 5.43774 14.6241
257 2 1.008 10.0302 5.12439 13.8151
258 2 1.008 11.4183 5.12778 14.5579
259 1 15.9994 13.052 1.81934 10.1434
260 2 1.008 13.8212 1.26894 11.6817
261 2 1.008 13.9182 1.26405 13.1875
262 1 15.9994 13.0874 1.73763 14.6789
263 2 1.008 13.5584 1.34496 15.5041
264 2 1.008 12.1879 1.44382 14.6961
265 1 15.9994 9.18488 4.51868 16.8841
266 2 1.008 9.13691 3.54046 16.767
267 2 1.008 9.63291 4.85312 16.0209
268 1 15.9994 9.17183 4.5652 12.3901
269 2 1.008 8.2733 4.85739 12.3785
270 2 1.008 9.6384 4.82668 11.5417
271 1 15.9994 10.4372 5.43051 10.1126
272 2 1.008 10.0536 5.09671 9.27681
273 2 1.008 11.3884 5.11584 10.1552
274 1 15.9994 10.4419 0.906058 10.136
275 2 1.008 10.4456 7.19071 10.1604
276 2 1.008 11.3813 8.46584 10.1819
277 1 15.9994 14.368 0.88399 12.3716
278 2 1.008 13.8995 1.1261 17.7511
279 2 1.008 15.3821 5.15232 16.8994
280 1 15.9994 14.3768 0.815952 16.9276
281 2 1.008 14.4005 6.44659 16.9418
282 2 1.008 13.8698 8.57504 16.1289
283 1 15.9994 14.3966 5.46434 16.9046
284 2 1.008 15.2869 8.571 16.9097
285 2 1.008 13.6166 8.86423 13.8826
286 1 15.9994 9.14502 1.74807 16.8634
287 2 1.008 6.56778 7.19242 16.9085
288 2 1.008 10.526 7.21338 14.6938
289 1 15.9994 1.35714 9.12417 12.3857
290 2 1.008 1.85716 8.85176 11.5761
291 2 1.008 1.32216 10.1049 12.3236
292 1 15.9994 5.24168 11.862 10.1384
293 2 1.008 5.62267 12.2715 11.0001
294 2 1.008 4.31723 12.1709 10.1808
295 1 15.9994 6.5212 12.8025 12.4077
296 2 1.008 6.06027 12.5494 13.2762
297 2 1.008 6.51696 13.788 12.3814
298 1 15.9994 5.20465 11.8906 14.6608
299 2 1.008 5.19734 10.9008 14.6803
300 2 1.008 4.29991 12.1695 14.7029
301 1 15.9994 2.60667 8.20032 14.6466
302 2 1.008 2.17413 8.56698 13.84
303 2 1.008 3.5325 8.50444 14.6305
304 1 15.9994 2.61714 12.8154 14.6752
305 2 1.008 2.60847 13.8154 14.7447
306 2 1.008 2.06897 12.5135 15.4554
307 1 15.9994 5.27814 9.11214 10.1331
308 2 1.008 5.28604 10.1283 10.0649
309 2 1.008 5.65296 8.84663 9.31722
310 1 15.9994 5.22035 9.11686 14.6498
311 2 1.008 5.70102 8.75754 15.4094
312 2 1.008 5.67572 8.78947 13.8584
313 1 15.9994 1.33746 11.9322 16.9163
314 2 1.008 1.72506 12.2977 17.7467
315 2 1.008 0.416808 12.2341 16.9579
316 1 15.9994 1.32733 11.9032 12.3969
317 2 1.008 0.410396 12.3505 12.4087
318 2 1.008 1.82403 12.2387 13.1924
319 1 15.9994 2.64221 12.7981 10.1294
320 2 1.008 2.12227 12.5069 10.8575
321 2 1.008 2.10146 12.5027 9.3191
322 1 15.9994 2.64226 8.18526 10.12
323 2 1.008 2.65399 7.23504 10.1345
324 2 1.008 3.59363 8.43938 10.1159
325 1 15.9994 6.52775 8.2332 12.4074
326 2 1.008 7.43304 8.57487 12.4191
327 2 1.008 6.06176 8.51743 11.6296
328 1 15.9994 6.55495 8.20068 16.8958
329 2 1.008 7.48685 8.47701 16.9173
330 2 1.008 9.58486 8.80262 17.7139
331 1 15.9994 6.52301 12.7931 16.929
332 2 1.008 6.03674 12.4441 16.165
333 2 1.008 6.05847 12.431 17.7293
334 1 15.9994 1.31118 9.15267 16.9082
335 2 1.008 1.76763 8.86546 16.1076
336 2 1.008 1.38362 10.1304 16.8824
337 1 15.9994 9.16884 9.12178 12.4099
338 2 1.008 9.68124 8.74347 11.6677
339 2 1.008 9.57848 8.78734 13.2581
340 1 15.9994 13.0458 11.8689 10.176
341 2 1.008 13.0164 10.9001 10.1994
342 2 1.008 12.1162 12.2019 10.1839
343 1 15.9994 14.368 12.8542 12.3895
344 2 1.008 13.9132 12.4723 11.6042
345 2 1.008 14.3695 13.8109 12.3303
346 1 15.9994 13.0497 11.9288 14.6472
347 2 1.008 13.4392 12.3223 13.8116
348 2 1.008 12.0791 12.2162 14.5805
349 1 15.9994 10.4717 8.1928 14.6776
350 2 1.008 11.4243 8.54876 14.6541
351 2 1.008 9.67707 8.78168 16.1309
352 1 15.9994 10.4266 12.8023 14.6492
353 2 1.008 9.94749 12.4561 13.831
354 2 1.008 9.96272 12.4101 15.421
355 1 15.9994 13.0455 9.10279 10.1619
356 2 1.008 13.5116 8.71271 10.941
357 2 1.008 15.3547 8.51186 12.3709
358 1 15.9994 13.0684 9.15048 14.6314
359 2 1.008 13.1647 10.1504 14.6579
360 2 1.008 14.4085 7.17126 12.3988
361 1 15.9994 9.12218 11.8991 16.9047
362 2 1.008 8.17773 12.1351 17.0026
363 2 1.008 9.11854 10.9223 16.9451
364 1 15.9994 9.11692 11.8847 12.3873
365 2 1.008 8.1553 12.203 12.3749
366 2 1.008 9.05538 10.9228 12.3554
367 1 15.9994 10.4721 12.8305 10.1797
368 2 1.008 10.4253 13.8164 10.2414
369 2 1.008 9.92361 12.5195 10.9208
370 1 15.9994 10.4501 8.19648 10.1833
371 2 1.008 6.54778 14.5601 7.92492
372 2 1.008 10.4233 14.523 14.5634
373 1 15.9994 14.4082 8.19687 12.3975
374 2 1.008 13.8566 12.3959 16.18
375 2 1.008 13.9043 12.507 17.7068
376 1 15.9994 14.353 8.23191 16.8932
377 2 1.008 14.3525 14.519 16.9615
378 2 1.008 6.54086 14.5868 17.0605
379 1 15.9994 14.354 12.7652 16.934
380 2 1.008 14.333 14.5718 7.94589
381 2 1.008 14.3377 14.5882 3.37522
382 1 15.9994 9.16577 9.13347 16.9252
383 2 1.008 2.64381 14.5608 10.0918
384 2 1.008 6.56499 14.5717 3.41593
ITEM: TIMESTEP
200
ITEM: NUMBER OF ATOMS
384
ITEM: BOX BOUNDS xy xz yz pp pp pp
0.0000000000000000e+00 1.5645677531129000e+01 0.0000000000000000e+00
0.0000000000000000e+00 1.4707145294364000e+01 0.0000000000000000e+00
0.0000000000000000e+00 1.8073037030847999e+01 0.0000000000000000e+00
ITEM: ATOMS id type mass x y z
1 1 15.9994 1.33042 1.72803 3.38402
2 2 1.008 1.30766 2.71809 3.25042
3 2 1.008 0.422236 1.43027 3.31115
4 1 15.9994 5.30929 4.58267 1.15901
5 2 1.008 5.77515 4.96496 1.95409
6 2 1.008 5.87464 4.79775 0.38936
7 1 15.9994 6.53309 5.56257 3.34902
8 2 1.008 6.13282 5.35959 4.22767
9 2 1.008 6.50548 6.55165 3.20202
10 1 15.9994 5.27915 4.54674 5.69532
11 2 1.008 4.41164 4.96611 5.77851
12 2 1.008 5.7368 4.91209 6.49801
13 1 15.9994 2.58138 0.906892 5.57389
14 2 1.008 2.19434 1.16142 4.68537
15 2 1.008 3.49742 1.21499 5.56834
16 1 15.9994 2.64184 5.49105 5.62288
17 2 1.008 2.5598 6.45504 5.61636
18 2 1.008 2.13388 5.19581 6.44779
19 1 15.9994 5.25993 1.79587 1.18402
20 2 1.008 5.21148 2.81617 1.24805
21 2 1.008 5.53397 1.52809 2.08787
22 1 15.9994 5.26062 1.78047 5.62346
23 2 1.008 5.69312 1.49812 6.49403
24 2 1.008 5.21699 2.74522 5.64531
25 1 15.9994 1.41326 4.57855 7.90979
26 2 1.008 1.42925 3.59886 7.94161
27 2 1.008 1.7666 4.85347 8.79514
28 1 15.9994 1.35301 4.44039 3.36518
29 2 1.008 1.93354 4.79425 2.62931
30 2 1.008 1.71002 4.91778 4.13143
31 1 15.9994 2.6331 5.39444 1.19117
32 2 1.008 2.44296 6.3481 1.1763
33 2 1.008 3.57487 5.28167 0.905792
34 1 15.9994 2.61172 0.893858 1.09746
35 2 1.008 2.15772 1.19892 1.90164
36 2 1.008 3.46543 1.3349 1.10951
37 1 15.9994 6.552 0.7715 3.43324
38 2 1.008 6.18506 1.12411 4.25626
39 2 1.008 8.31994 1.4171 3.31512
40 1 15.9994 6.46156 0.850551 7.83954
41 2 1.008 5.97819 1.18656 8.6269
42 2 1.008 8.27019 1.32395 7.92856
43 1 15.9994 6.54375 5.57639 7.93458
44 2 1.008 7.48531 5.27741 7.83907
45 2 1.008 6.57155 6.56105 7.96972
46 1 15.9994 1.25744 1.70433 7.83469
47 2 1.008 1.58756 1.4246 6.96262
48 2 1.008 0.343784 1.31158 7.87115
49 1 15.9994 9.17411 1.81965 3.27288
50 2 1.008 9.10278 2.7933 3.19846
51 2 1.008 9.875 1.13609 1.85429
52 1 15.9994 13.0613 4.55013 1.03777
53 2 1.008 13.0837 3.53785 1.09843
54 2 1.008 13.5268 4.75082 0.194642
55 1 15.9994 14.4377 5.46519 3.31779
56 2 1.008 15.29 5.05742 3.35576
57 2 1.008 13.9361 5.00006 2.55543
58 1 15.9994 13.0931 4.61834 5.64826
59 2 1.008 13.3775 4.92494 4.77116
60 2 1.008 12.1772 4.81614 5.75466
61 1 15.9994 10.4679 0.960451 5.53078
62 2 1.008 10.0773 1.36869 4.6919
63 2 1.008 11.3831 1.32198 5.50734
64 1 15.9994 10.3842 5.48269 5.60883
65 2 1.008 10.0303 5.28322 4.77003
66 2 1.008 10.3867 6.42702 5.70025
67 1 15.9994 13.0743 1.76629 1.12647
68 2 1.008 12.1548 1.34037 1.05672
69 2 1.008 13.5235 1.34736 1.8544
70 1 15.9994 13.0541 1.80181 5.68588
71 2 1.008 13.4883 1.33333 6.40141
72 2 1.008 13.0857 2.76753 5.85464
73 1 15.9994 9.12462 4.45665 7.81658
74 2 1.008 8.97622 3.47059 7.79342
75 2 1.008 9.66203 4.70773 7.07079
76 1 15.9994 9.1441 4.57316 3.28057
77 2 1.008 8.29409 5.04764 3.1367
78 2 1.008 9.62657 4.75287 2.48617
79 1 15.9994 10.3805 5.38989 1.03572
80 2 1.008 10.1177 5.02583 0.145662
81 2 1.008 11.3413 5.09984 1.16739
82 1 15.9994 10.4091 0.877943 1.1017
83 2 1.008 9.93346 1.26472 0.343742
84 2 1.008 13.8035 1.10138 4.25409
85 1 15.9994 14.3299 0.830895 3.46046
86 2 1.008 13.8224 1.19664 8.63728
87 2 1.008 13.9352 5.16726 7.08424
88 1 15.9994 14.378 0.809967 7.89622
89 2 1.008 13.1253 2.85886 10.1142
90 2 1.008 12.128 1.57947 10.0229
91 1 15.9994 14.4363 5.53856 7.8864
92 2 1.008 15.3428 5.15209 7.82928
93 2 1.008 14.1752 7.28667 7.85876
94 1 15.9994 9.15334 1.70635 7.86279
95 2 1.008 9.48189 1.43039 6.97903
96 2 1.008 9.98504 1.06226 9.20722
97 1 15.9994 1.37117 9.13536 3.43871
98 2 1.008 1.8464 8.86452 4.26028
99 2 1.008 1.45353 10.1244 3.52445
100 1 15.9994 5.25983 11.8746 1.13795
101 2 1.008 5.17998 10.9266 0.933608
102 2 1.008 4.35951 12.2892 1.21397
103 1 15.9994 6.5401 12.791 3.33506
104 2 1.008 7.48475 12.4535 3.2741
105 2 1.008 6.06517 12.3053 2.59178
106 1 15.9994 5.22624 11.8578 5.6375
107 2 1.008 5.70586 12.1445 6.41501
108 2 1.008 5.6733 12.287 4.85808
109 1 15.9994 2.6353 8.23888 5.59921
110 2 1.008 3.60615 8.50924 5.62124
111 2 1.008 2.18238 8.5723 6.44255
112 1 15.9994 2.61225 12.7797 5.64953
113 2 1.008 2.62418 13.7825 5.70545
114 2 1.008 3.54666 12.4923 5.78568
115 1 15.9994 5.20818 9.1036 1.1156
116 2 1.008 4.28115 8.80919 1.10197
117 2 1.008 5.63885 8.80722 0.289751
118 1 15.9994 5.23982 9.13758 5.61884
119 2 1.008 5.70131 8.99736 4.77829
120 2 1.008 5.16719 10.1369 5.69313
121 1 15.9994 1.25412 11.8887 7.90257
122 2 1.008 1.34844 10.9139 7.77062
123 2 1.008 1.66642 12.3097 7.0903
124 1 15.9994 1.34775 11.9109 3.37791
125 2 1.008 0.460637 12.2404 3.36757
126 2 1.008 1.86191 12.2958 4.15406
127 1 15.9994 2.59919 12.8099 1.00866
128 2 1.008 2.62786 13.7857 1.06361
129 2 1.008 2.18406 12.4385 1.81229
130 1 15.9994 2.62855 8.22742 1.09834
131 2 1.008 2.03746 8.5982 0.403372
132 2 1.008 2.15073 8.48013 1.95393
133 1 15.9994 6.58143 8.2601 3.30545
134 2 1.008 7.46712 8.61146 3.31207
135 2 1.008 6.13412 8.5689 2.48466
136 1 15.9994 6.47445 8.346 7.86818
137 2 1.008 6.04349 8.68136 7.04769
138 2 1.008 7.44307 8.44966 7.73149
139 1 15.9994 6.60373 12.8189 7.95591
140 2 1.008 6.14877 12.596 8.7793
141 2 1.008 7.53683 12.4909 8.05009
142 1 15.9994 1.32984 9.05486 7.8836
143 2 1.008 0.449265 8.6474 7.87208
144 2 1.008 1.79607 8.72817 8.68561
145 1 15.9994 9.14292 9.15817 3.32681
146 2 1.008 9.59898 8.72604 2.56758
147 2 1.008 9.62804 8.84499 4.14128
148 1 15.9994 13.0536 11.8243 1.04947
149 2 1.008 13.13 10.9265 1.32658
150 2 1.008 12.1044 12.0809 1.02298
151 1 15.9994 14.4296 12.7235 3.35027
152 2 1.008 13.9319 12.4819 4.15758
153 2 1.008 13.9401 12.4063 2.56594
154 1 15.9994 13.0341 11.8669 5.58104
155 2 1.008 12.0947 12.1736 5.62243
156 2 1.008 13.518 12.2351 6.34573
157 1 15.9994 10.3879 8.26536 5.63051
158 2 1.008 11.3516 8.52654 5.65029
159 2 1.008 10.1075 8.62529 6.49808
160 1 15.9994 10.475 12.8448 5.59784
161 2 1.008 10.0875 12.6665 4.68128
162 2 1.008 10.4381 13.8346 5.67619
163 1 15.9994 13.0259 9.07551 1.07172
164 2 1.008 13.5026 8.87864 0.273674
165 2 1.008 13.5502 8.65656 1.77766
166 1 15.9994 13.0646 9.16654 5.61488
167 2 1.008 13.52 9.02167 4.76224
168 2 1.008 13.1365 10.1418 5.74495
169 1 15.9994 9.15371 11.8636 7.862
170 2 1.008 9.63596 12.1173 7.08024
171 2 1.008 9.7196 12.1423 8.61211
172 1 15.9994 9.08254 11.8597 3.32401
173 2 1.008 9.13041 10.9087 3.33218
174 2 1.008 9.51247 12.1612 2.45653
175 1 15.9994 10.4541 12.7336 1.05229
176 2 1.008 9.95633 12.3987 0.253054
177 2 1.008 10.4723 13.709 0.920148
178 1 15.9994 10.4278 8.1448 1.13826
179 2 1.008 10.4457 7.20426 1.29764
180 2 1.008 11.3573 8.47682 1.1524
181 1 15.9994 14.3128 8.20501 3.39707
182 2 1.008 14.4092 7.17532 3.34994
183 2 1.008 15.2446 8.5193 3.51601
184 1 15.9994 14.2834 8.25713 7.91272
185 2 1.008 14.0711 8.61512 7.01945
186 2 1.008 13.5808 8.90858 9.42174
187 1 15.9994 14.3346 12.8394 7.93631
188 2 1.008 13.9021 12.4193 8.6871
189 2 1.008 15.2086 12.4615 7.79077
190 1 15.9994 9.06391 9.11814 7.90896
191 2 1.008 9.0452 10.1322 7.97258
192 2 1.008 9.5338 8.68353 8.70217
193 1 15.9994 1.32072 1.76259 12.399
194 2 1.008 1.7588 1.56525 11.5645
195 2 1.008 0.39807 1.48403 12.3185
196 1 15.9994 5.27124 4.54129 10.1628
197 2 1.008 5.69064 4.85906 11.0031
198 2 1.008 5.8505 4.93909 9.42855
199 1 15.9994 6.59206 5.54365 12.342
200 2 1.008 6.19283 5.31037 13.1825
201 2 1.008 6.70263 6.54643 12.3357
202 1 15.9994 5.21989 4.50718 14.6493
203 2 1.008 5.09462 3.52663 14.6034
204 2 1.008 4.3312 4.92351 14.7578
205 1 15.9994 2.62334 0.844526 14.6568
206 2 1.008 2.26779 1.1018 15.5872
207 2 1.008 2.12272 1.29435 13.9631
208 1 15.9994 2.69144 5.43591 14.7436
209 2 1.008 2.6079 6.41379 14.6962
210 2 1.008 2.09816 5.06037 15.421
211 1 15.9994 5.23478 1.78678 10.2031
212 2 1.008 4.27378 1.56734 10.1572
213 2 1.008 5.27115 2.79275 10.1341
214 1 15.9994 5.26466 1.72176 14.7019
215 2 1.008 5.7135 1.32364 15.4828
216 2 1.008 4.36204 1.29279 14.7464
217 1 15.9994 1.35103 4.51992 16.9477
218 2 1.008 1.33679 3.53464 17.0813
219 2 1.008 1.83303 4.87313 17.7711
220 1 15.9994 1.39579 4.52424 12.4116
221 2 1.008 1.5647 3.52122 12.4661
222 2 1.008 2.09711 4.8302 13.082
223 1 15.9994 2.62583 5.50442 10.0839
224 2 1.008 2.25887 5.24161 10.9432
225 2 1.008 3.59294 5.33017 10.1566
226 1 15.9994 2.64482 0.876447 10.0968
227 2 1.008 2.17564 1.16637 9.29272
228 2 1.008 6.09769 1.31942 11.6283
229 1 15.9994 6.58735 0.890757 12.3644
230 2 1.008 6.15161 1.21651 13.2166
231 2 1.008 8.21022 1.45564 12.3589
232 1 15.9994 6.61398 0.791459 16.9265
233 2 1.008 6.44443 1.32507 17.7131
234 2 1.008 8.17526 1.32584 16.9098
235 1 15.9994 6.56099 5.42421 16.9231
236 2 1.008 6.13135 4.92862 16.1605
237 2 1.008 7.48797 5.106 16.8989
238 1 15.9994 1.37471 1.77276 16.9297
239 2 1.008 0.428441 1.50252 16.8482
240 2 1.008 1.74365 1.25621 17.6806
241 1 15.9994 9.15057 1.8014 12.435
242 2 1.008 8.96612 2.77918 12.453
243 2 1.008 9.81548 1.22829 10.8288
244 1 15.9994 13.0362 4.59685 10.0757
245 2 1.008 13.5232 5.01132 10.8573
246 2 1.008 13.4972 5.03139 9.26931
247 1 15.9994 14.4062 5.4269 12.4067
248 2 1.008 15.3392 5.14171 12.5129
249 2 1.008 13.8956 5.01642 13.1877
250 1 15.9994 13.1009 4.54906 14.6194
251 2 1.008 13.5209 4.84264 15.4527
252 2 1.008 13.2102 3.56596 14.6435
253 1 15.9994 10.4896 0.761533 14.6229
254 2 1.008 10.1197 1.17926 13.803
255 2 1.008 9.50331 1.2826 16.031
256 1 15.9994 10.4896 5.39062 14.6106
257 2 1.008 10.0201 5.20292 13.7699
258 2 1.008 11.4191 5.14838 14.4749
259 1 15.9994 13.0598 1.84655 10.1504
260 2 1.008 13.788 1.20292 11.6797
261 2 1.008 14.0702 1.18396 13.2562
262 1 15.9994 13.131 1.71585 14.6945
263 2 1.008 13.5543 1.30792 15.5413
264 2 1.008 12.2117 1.50867 14.7274
265 1 15.9994 9.18752 4.53789 16.9319
266 2 1.008 9.08205 3.58221 16.7382
267 2 1.008 9.52491 5.00406 16.0933
268 1 15.9994 9.23392 4.55058 12.3845
269 2 1.008 8.34481 4.88026 12.2664
270 2 1.008 9.65432 4.73114 11.4852
271 1 15.9994 10.4574 5.41905 10.1336
272 2 1.008 10.1617 5.09479 9.26721
273 2 1.008 11.4156 5.1041 10.213
274 1 15.9994 10.4141 0.898056 10.1012
275 2 1.008 10.4339 7.17143 10.2474
276 2 1.008 11.3972 8.42326 10.181
277 1 15.9994 14.3694 0.875361 12.368
278 2 1.008 13.8949 1.1621 17.7165
279 2 1.008 15.4594 5.19369 16.8657
280 1 15.9994 14.3704 0.813877 16.9102
281 2 1.008 14.4355 6.46328 16.9935
282 2 1.008 13.875 8.61856 16.1271
283 1 15.9994 14.4647 5.48061 16.9013
284 2 1.008 15.2101 8.63554 16.8862
285 2 1.008 13.7093 8.83297 13.9819
286 1 15.9994 9.06672 1.73407 16.8305
287 2 1.008 6.47176 7.16765 16.9486
288 2 1.008 10.6077 7.14776 14.7313
289 1 15.9994 1.38274 9.07204 12.431
290 2 1.008 1.94802 8.81273 11.683
291 2 1.008 1.24186 10.0366 12.3838
292 1 15.9994 5.22876 11.8049 10.103
293 2 1.008 5.60656 12.1854 10.9653
294 2 1.008 4.28802 12.0237 10.033
295 1 15.9994 6.54483 12.7612 12.3701
296 2 1.008 6.139 12.6246 13.281
297 2 1.008 6.55494 13.7392 12.2366
298 1 15.9994 5.22458 11.8685 14.638
299 2 1.008 5.27955 10.874 14.6424
300 2 1.008 4.30439 12.088 14.7328
301 1 15.9994 2.57364 8.14571 14.606
302 2 1.008 2.14988 8.56632 13.8129
303 2 1.008 3.50778 8.4185 14.6346
304 1 15.9994 2.64155 12.7955 14.7119
305 2 1.008 2.64043 13.7961 14.7417
306 2 1.008 1.98846 12.4729 15.3672
307 1 15.9994 5.34695 9.10103 10.1713
308 2 1.008 5.33395 10.1024 10.1261
309 2 1.008 5.70949 8.77235 9.36024
310 1 15.9994 5.19938 9.0997 14.623
311 2 1.008 5.75017 8.72384 15.3332
312 2 1.008 5.58749 8.78594 13.7924
313 1 15.9994 1.3496 11.9688 16.8594
314 2 1.008 1.75385 12.3918 17.6398
315 2 1.008 0.397894 12.144 16.8364
316 1 15.9994 1.32222 11.9219 12.3756
317 2 1.008 0.474093 12.4749 12.4561
318 2 1.008 1.92119 12.2663 13.0856
319 1 15.9994 2.65065 12.8372 10.0929
320 2 1.008 2.11041 12.5836 10.8285
321 2 1.008 2.14179 12.6361 9.24268
322 1 15.9994 2.62289 8.17066 10.0718
323 2 1.008 2.52842 7.21987 10.0686
324 2 1.008 3.58008 8.37805 10.0993
325 1 15.9994 6.51084 8.25411 12.4417
326 2 1.008 7.38379 8.63652 12.3442
327 2 1.008 6.12605 8.57316 11.6101
328 1 15.9994 6.54092 8.16502 16.8836
329 2 1.008 7.4722 8.44063 16.8903
330 2 1.008 9.55239 8.80621 17.7228
331 1 15.9994 6.56219 12.7939 16.9542
332 2 1.008 6.06294 12.4221 16.2204
333 2 1.008 6.10523 12.48 17.7784
334 1 15.9994 1.29914 9.15078 16.9267
335 2 1.008 1.67605 8.77308 16.1216
336 2 1.008 1.43689 10.1241 16.9064
337 1 15.9994 9.2329 9.14352 12.3947
338 2 1.008 9.85212 8.69317 11.7936
339 2 1.008 9.4721 8.78446 13.2859
340 1 15.9994 13.0207 11.8952 10.1782
341 2 1.008 12.9528 10.9256 10.2295
342 2 1.008 12.0956 12.2252 10.2189
343 1 15.9994 14.3561 12.9025 12.386
344 2 1.008 13.8725 12.5611 11.5975
345 2 1.008 14.3797 13.8632 12.2527
346 1 15.9994 13.0178 11.9842 14.6415
347 2 1.008 13.3836 12.3716 13.8108
348 2 1.008 12.0152 12.0974 14.6668
349 1 15.9994 10.4699 8.11396 14.6581
350 2 1.008 11.3832 8.53337 14.6663
351 2 1.008 9.74684 8.7378 16.2085
352 1 15.9994 10.4105 12.8671 14.7039
353 2 1.008 9.95027 12.5721 13.8464
354 2 1.008 9.96228 12.3954 15.434
355 1 15.9994 13.0239 9.1286 10.1833
356 2 1.008 13.3904 8.70569 10.9844
357 2 1.008 15.3771 8.46919 12.3655
358 1 15.9994 13.0552 9.16826 14.6334
359 2 1.008 13.2199 10.134 14.7875
360 2 1.008 14.4506 7.18181 12.4462
361 1 15.9994 9.11976 11.8966 16.9251
362 2 1.008 8.21255 12.2199 17.0921
363 2 1.008 9.14295 10.9202 16.9519
364 1 15.9994 9.12101 11.9001 12.3899
365 2 1.008 8.17821 12.284 12.357
366 2 1.008 9.07008 10.9435 12.318
367 1 15.9994 10.4585 12.7839 10.1783
368 2 1.008 10.3884 13.7617 10.2288
369 2 1.008 9.89475 12.4138 10.8635
370 1 15.9994 10.4599 8.16426 10.2095
371 2 1.008 6.50859 14.5855 8.01514
372 2 1.008 10.4624 14.4696 14.57
373 1 15.9994 14.4295 8.2008 12.4103
374 2 1.008 13.8367 12.3455 16.1753
375 2 1.008 13.9298 12.5895 17.6813
376 1 15.9994 14.3162 8.21045 16.8731
377 2 1.008 14.3339 14.5298 16.9194
378 2 1.008 6.59898 14.565 17.1056
379 1 15.9994 14.3791 12.7767 16.8842
380 2 1.008 14.3008 14.5304 7.95339
381 2 1.008 14.287 14.5632 3.42542
382 1 15.9994 9.17805 9.16781 16.9041
383 2 1.008 2.64426 14.5797 10.0804
384 2 1.008 6.56736 14.5005 3.43124
ITEM: TIMESTEP
300
ITEM: NUMBER OF ATOMS
384
ITEM: BOX BOUNDS xy xz yz pp pp pp
0.0000000000000000e+00 1.5645677531129000e+01 0.0000000000000000e+00
0.0000000000000000e+00 1.4707145294364000e+01 0.0000000000000000e+00
0.0000000000000000e+00 1.8073037030847999e+01 0.0000000000000000e+00
ITEM: ATOMS id type mass x y z
1 1 15.9994 1.31917 1.68483 3.39697
2 2 1.008 1.31222 2.6881 3.47971
3 2 1.008 0.39333 1.39749 3.45877
4 1 15.9994 5.3297 4.58448 1.18573
5 2 1.008 5.78886 4.85371 2.02078
6 2 1.008 5.92063 4.81994 0.432763
7 1 15.9994 6.55265 5.60153 3.30379
8 2 1.008 6.21904 5.3097 4.19171
9 2 1.008 6.53564 6.60925 3.3629
10 1 15.9994 5.29726 4.56352 5.74819
11 2 1.008 4.37704 4.9104 5.7569
12 2 1.008 5.78554 4.93822 6.52447
13 1 15.9994 2.56449 0.911316 5.59663
14 2 1.008 2.12835 1.28633 4.77533
15 2 1.008 3.4622 1.27518 5.63256
16 1 15.9994 2.6667 5.51125 5.62545
17 2 1.008 2.57758 6.47275 5.60661
18 2 1.008 2.28277 5.19262 6.49703
19 1 15.9994 5.2492 1.78562 1.24512
20 2 1.008 5.31368 2.79139 1.27662
21 2 1.008 5.62768 1.40255 2.06543
22 1 15.9994 5.26867 1.77885 5.60998
23 2 1.008 5.72893 1.4802 6.46371
24 2 1.008 5.19659 2.738 5.66828
25 1 15.9994 1.44583 4.59367 7.91975
26 2 1.008 1.46702 3.62002 7.90654
27 2 1.008 1.95123 4.9219 8.73293
28 1 15.9994 1.36067 4.38122 3.38017
29 2 1.008 1.89424 4.68905 2.58535
30 2 1.008 1.77894 4.65291 4.21115
31 1 15.9994 2.61755 5.36617 1.20959
32 2 1.008 2.59063 6.34825 1.25239
33 2 1.008 3.61689 5.17907 1.19543
34 1 15.9994 2.56613 0.895335 1.10856
35 2 1.008 2.17662 1.19796 1.95476
36 2 1.008 3.48812 1.20662 1.1497