192
Lattice="8.9940000000 0 0  0.0000000000 15.5780000000 0  0.0000000000 0.0000000000 14.6440000000" Properties=species:S:1:pos:R:3 step=100
O  0.15659400  2.53719000  0.36410900
H  8.36681000  2.02732000  0.04914980
H  0.97836200  2.01580000  0.15401000
O  2.40867000  6.44414000  0.36822400
H  1.63013000  5.91655000  0.12898700
H  3.21584000  5.90779000  0.17888900
O  2.41424000  1.17540000  6.89631000
H  2.40159000  0.25562700  7.23780000
H  2.29496000  1.17747000  5.90845000
O  0.16785600  5.06606000  6.91417000
H  0.23058700  4.11920000  7.20847000
H  0.11160800  5.03178000  5.94543000
O  2.08746000  1.35170000  4.00732000
H  1.28530000  1.85615000  3.77795000
H  2.85517000  1.88294000  3.75535000
O  8.84728000  5.24477000  4.00394000
H  8.01777000  5.74720000  3.82929000
H  0.60517600  5.79097000  3.80411000
O  8.82750000  2.71915000  3.26060000
H  8.90558000  2.80199000  2.29467000
H  8.80423000  3.66583000  3.58983000
O  2.08882000  6.62198000  3.24753000
H  2.21861000  6.63240000  2.30933000
H  2.08400000  7.56061000  3.53535000
O  0.16998700  2.56367000  7.67729000
H  8.37351000  2.03665000  7.41222000
H  0.94892600  2.04832000  7.53585000
O  2.40937000  6.42755000  7.67412000
H  1.64122000  5.87308000  7.39624000
H  3.17191000  5.90360000  7.49601000
O  2.40435000  1.15921000  14.24470000
H  2.38435000  0.20235800  14.53040000
H  2.32170000  1.19543000  13.21960000
O  0.15886500  5.06696000  14.22820000
H  0.15364700  4.09710000  14.50700000
H  -0.00628264  5.06622000  13.25090000
O  2.10245000  1.32686000  11.34250000
H  1.31843000  1.85402000  11.17840000
H  2.91445000  1.92494000  11.08170000
O  8.82947000  5.23259000  11.32410000
H  8.02942000  5.80227000  11.12380000
H  0.65133400  5.75787000  11.12420000
O  8.83303000  2.74744000  10.57500000
H  8.93859000  2.76447000  9.60278000
H  8.83310000  3.70286000  10.91610000
O  2.08337000  6.60459000  10.56190000
H  2.18309000  6.66077000  9.59647000
H  2.07507000  7.54110000  10.92190000
O  0.15658900  10.33440000  0.33442900
H  8.34778000  9.78868000  0.08067160
H  0.94281700  9.75459000  0.18269500
O  2.40370000  14.24630000  0.33758900
H  1.63216000  13.65740000  0.12990100
H  3.17886000  13.70280000  0.16302500
O  2.43423000  8.96155000  6.90778000
H  2.36689000  8.01540000  7.21291000
H  2.28600000  8.88893000  5.94029000
O  0.16301700  12.87070000  6.91396000
H  0.11886300  11.91430000  7.19102000
H  0.11408800  12.80710000  5.97091000
O  2.10294000  9.14762000  4.00226000
H  1.27232000  9.68315000  3.80858000
H  2.90372000  9.66503000  3.77445000
O  8.82677000  13.02900000  4.01227000
H  8.07577000  13.60860000  3.87466000
H  0.63130100  13.53410000  3.78610000
O  8.83964000  10.51720000  3.25524000
H  8.91711000  10.48040000  2.28070000
H  8.81387000  11.44840000  3.49353000
O  2.08254000  14.41680000  3.26115000
H  2.16178000  14.42670000  2.28053000
H  2.09819000  15.36530000  3.62220000
O  0.14733400  10.33200000  7.66442000
H  8.33966000  9.76829000  7.38974000
H  0.95481100  9.75707000  7.55710000
O  2.40844000  14.22990000  7.66043000
H  1.62984000  13.70280000  7.36843000
H  3.21839000  13.66630000  7.54867000
O  2.39414000  8.95201000  14.22210000
H  2.42222000  8.00547000  14.49700000
H  2.34268000  8.92729000  13.27960000
O  0.14559300  12.85240000  14.23420000
H  0.19327300  11.90370000  14.52180000
H  0.04149600  12.82630000  13.28420000
O  2.09283000  9.13100000  11.35520000
H  1.25969000  9.64313000  11.15690000
H  2.83944000  9.69541000  11.06930000
O  8.84961000  13.02290000  11.33120000
H  8.03123000  13.59660000  11.14470000
H  0.61023500  13.61210000  11.04630000
O  8.84784000  10.53430000  10.57490000
H  8.95399000  10.54770000  9.60083000
H  8.77031000  11.48930000  10.85750000
O  2.08956000  14.39990000  10.56780000
H  2.18064000  14.43890000  9.59539000
H  2.05191000  15.33630000  10.82190000
O  4.65713000  2.55296000  0.37354300
H  3.87888000  1.94801000  0.09568930
H  5.45618000  2.04290000  0.14177300
O  6.90934000  6.44948000  0.35473400
H  6.09822000  5.92797000  0.05701660
H  7.70247000  5.89126000  0.21780800
O  6.90391000  1.16675000  6.90296000
H  6.92588000  0.22763000  7.21200000
H  6.74341000  1.09920000  5.93977000
O  4.65431000  5.04342000  6.91272000
H  4.63351000  4.06708000  7.16813000
H  4.54532000  5.07928000  5.95920000
O  6.59643000  1.34254000  4.00041000
H  5.82302000  1.87414000  3.85196000
H  7.37388000  1.91707000  3.79351000
O  4.33880000  5.23221000  4.01307000
H  3.54538000  5.78545000  3.84872000
H  5.14560000  5.77605000  3.84178000
O  4.33633000  2.72727000  3.25849000
H  4.45174000  2.75232000  2.28884000
H  4.28494000  3.68311000  3.56449000
O  6.59035000  6.61121000  3.24714000
H  6.66379000  6.66674000  2.29279000
H  6.56037000  7.57064000  3.58902000
O  4.63837000  2.55028000  7.67373000
H  3.87120000  2.01787000  7.39477000
H  5.45346000  2.07439000  7.48198000
O  6.90203000  6.45010000  7.66584000
H  6.16065000  5.92183000  7.40404000
H  7.70805000  5.95323000  7.51188000
O  6.90494000  1.16573000  14.20630000
H  6.85965000  0.21436000  14.53610000
H  6.79539000  1.16621000  13.23340000
O  4.66465000  5.06995000  14.23400000
H  4.65102000  4.12296000  14.52260000
H  4.57016000  5.00444000  13.31080000
O  6.60692000  1.33954000  11.32380000
H  5.77805000  1.87844000  11.13400000
H  7.36288000  1.90612000  11.05040000
O  4.32758000  5.25826000  11.33610000
H  3.52171000  5.80808000  11.15730000
H  5.12878000  5.70560000  11.03120000
O  4.33957000  2.73218000  10.58040000
H  4.45189000  2.80618000  9.62210000
H  4.35885000  3.67559000  10.89500000
O  6.59043000  6.60879000  10.56240000
H  6.69017000  6.61344000  9.60187000
H  6.59090000  7.54273000  10.87230000
O  4.64512000  10.35190000  0.34121800
H  3.83433000  9.79395000  0.11214700
H  5.44562000  9.82953000  0.20045500
O  6.90624000  14.23060000  0.33005000
H  6.11956000  13.73480000  0.17779300
H  7.67269000  13.64840000  0.14636000
O  6.92525000  8.94884000  6.90478000
H  6.91380000  8.00565000  7.17762000
H  6.84466000  8.92398000  5.95105000
O  4.65514000  12.84410000  6.89251000
H  4.64855000  11.90730000  7.23342000
H  4.53580000  12.83200000  5.93815000
O  6.58590000  9.14521000  4.01374000
H  5.79593000  9.62900000  3.78009000
H  7.36280000  9.64015000  3.72833000
O  4.35647000  13.03210000  4.00801000
H  3.56432000  13.58290000  3.77656000
H  5.13891000  13.59180000  3.78329000
O  4.33567000  10.50650000  3.24027000
H  4.41789000  10.57520000  2.29197000
H  4.30517000  11.45110000  3.52907000
O  6.58204000  14.41760000  3.24581000
H  6.68117000  14.46510000  2.27839000
H  6.63628000  15.37450000  3.61458000
O  4.64202000  10.33150000  7.65315000
H  3.86443000  9.75480000  7.43735000
H  5.44310000  9.77103000  7.50365000
O  6.88058000  14.22870000  7.67267000
H  6.09604000  13.73300000  7.42216000
H  7.69468000  13.72070000  7.44091000
O  6.90825000  8.94667000  14.22570000
H  6.91112000  7.96797000  14.53150000
H  6.82146000  8.92818000  13.24270000
O  4.65830000  12.84930000  14.23470000
H  4.67449000  11.94290000  14.59910000
H  4.54710000  12.82690000  13.29280000
O  6.58044000  9.13143000  11.33830000
H  5.76550000  9.59671000  11.15880000
H  7.34853000  9.71446000  11.13350000
O  4.33753000  13.03250000  11.34120000
H  3.59992000  13.60100000  11.11950000
H  5.14924000  13.59240000  11.12400000
O  4.32951000  10.52430000  10.57210000
H  4.48683000  10.48710000  9.59933000
H  4.29139000  11.45120000  10.85290000
O  6.56315000  14.40020000  10.56400000
H  6.70059000  14.47990000  9.65328000
H  6.57831000  15.33830000  10.92400000
192
Lattice="8.9940000000 0 0  0.0000000000 15.5780000000 0  0.0000000000 0.0000000000 14.6440000000" Properties=species:S:1:pos:R:3 step=200
O  0.17297000  2.50526000  0.40042700
H  8.43463000  2.00839000  -0.03837280
H  1.00570000  2.02098000  0.15193400
O  2.44492000  6.42568000  0.41467000
H  1.63212000  5.93175000  0.22307200
H  3.19609000  5.84080000  0.17465100
O  2.43415000  1.22478000  6.85104000
H  2.50700000  0.28051000  7.13050000
H  2.25228000  1.14925000  5.88462000
O  0.20977300  5.08065000  6.95724000
H  0.30774500  4.16275000  7.31547000
H  0.20184900  4.99882000  5.98428000
O  2.06249000  1.37807000  4.00296000
H  1.27047000  1.84469000  3.66566000
H  2.85408000  1.87916000  3.72379000
O  8.85950000  5.26514000  3.98675000
H  8.04717000  5.78353000  3.80578000
H  0.57482600  5.86115000  3.77937000
O  8.80209000  2.70775000  3.32104000
H  8.75407000  2.88460000  2.36724000
H  8.80772000  3.59809000  3.75795000
O  2.10142000  6.61767000  3.26191000
H  2.24111000  6.56184000  2.32650000
H  2.09161000  7.56548000  3.48663000
O  0.21830100  2.61786000  7.70237000
H  8.43939000  2.14504000  7.32740000
H  0.96960200  2.05559000  7.54140000
O  2.43157000  6.34607000  7.68234000
H  1.66305000  5.84034000  7.35874000
H  3.23816000  5.90136000  7.51344000
O  2.38542000  1.13575000  14.28610000
H  2.28212000  0.14925100  14.42000000
H  2.40636000  1.26476000  13.26770000
O  0.13846100  5.07984000  14.21280000
H  0.15484100  4.10471000  14.45170000
H  -0.26957200  5.19009000  13.33280000
O  2.12989000  1.27521000  11.36420000
H  1.35074000  1.82913000  11.26140000
H  2.96847000  1.83163000  11.08740000
O  8.77197000  5.23340000  11.29660000
H  8.06637000  5.88998000  11.02660000
H  0.66734000  5.65551000  11.26170000
O  8.82787000  2.81652000  10.59810000
H  8.97123000  2.91357000  9.64557000
H  8.79590000  3.78218000  10.91780000
O  2.06512000  6.55565000  10.54710000
H  2.17094000  6.74981000  9.59664000
H  2.08647000  7.45581000  10.97740000
O  0.18751100  10.30380000  0.28793000
H  8.32014000  9.83398000  0.02719530
H  0.92803800  9.67938000  0.14760600
O  2.40374000  14.27080000  0.30903200
H  1.60968000  13.68960000  0.23503700
H  3.21256000  13.78450000  0.14816100
O  2.50549000  8.96221000  6.89429000
H  2.41079000  8.08326000  7.32063000
H  2.21500000  8.89779000  5.96149000
O  0.18467400  12.93170000  6.93626000
H  0.07491570  12.00610000  7.28089000
H  0.23631900  12.84900000  5.97573000
O  2.10970000  9.18513000  3.97581000
H  1.33164000  9.76333000  3.72901000
H  2.91087000  9.74414000  3.79814000
O  8.77871000  13.03970000  4.02114000
H  8.10738000  13.70840000  3.85048000
H  0.64499600  13.46840000  3.87745000
O  8.83299000  10.52750000  3.27898000
H  8.85989000  10.36090000  2.32174000
H  8.72855000  11.45900000  3.43276000
O  2.06774000  14.41950000  3.31261000
H  2.08651000  14.58560000  2.35807000
H  2.10278000  15.36960000  3.66078000
O  0.12263300  10.29930000  7.64334000
H  8.29287000  9.77783000  7.35635000
H  0.88695000  9.69227000  7.70774000
O  2.45113000  14.22730000  7.60563000
H  1.67314000  13.73280000  7.26100000
H  3.21317000  13.59340000  7.59829000
O  2.35271000  8.93053000  14.19030000
H  2.48165000  8.00411000  14.48620000
H  2.39486000  9.00000000  13.23190000
O  0.10132400  12.85050000  14.25510000
H  0.20394800  11.89860000  14.53750000
H  0.00139638  12.83760000  13.30150000
O  2.06549000  9.11808000  11.43390000
H  1.22062000  9.60201000  11.26390000
H  2.78013000  9.68244000  11.09960000
O  8.87830000  13.02270000  11.32320000
H  7.97501000  13.46190000  11.20650000
H  0.63980700  13.60210000  11.01730000
O  8.89834000  10.61030000  10.61210000
H  8.94179000  10.56950000  9.64468000
H  8.77632000  11.58790000  10.85190000
O  2.08869000  14.37610000  10.54850000
H  2.10518000  14.35760000  9.57628000
H  2.04000000  15.29100000  10.85330000
O  4.69093000  2.53890000  0.44267500
H  3.93703000  1.90917000  0.20568100
H  5.54491000  2.16024000  0.15734000
O  6.93101000  6.45715000  0.36426600
H  6.12889000  6.00802000  -0.01674390
H  7.69228000  5.84802000  0.30557100
O  6.89971000  1.15081000  6.86519000
H  6.91430000  0.26107100  7.29178000
H  6.64357000  1.00493000  5.94013000
O  4.64196000  4.97638000  6.90461000
H  4.61858000  3.99429000  7.09780000
H  4.49871000  5.08094000  5.95489000
O  6.62192000  1.34989000  3.95725000
H  5.81690000  1.85829000  3.86143000
H  7.41954000  1.93005000  3.92983000
O  4.31804000  5.20692000  4.02901000
H  3.57633000  5.81908000  3.91916000
H  5.14730000  5.73528000  3.99726000
O  4.33677000  2.72948000  3.28480000
H  4.47907000  2.77359000  2.31064000
H  4.22349000  3.67611000  3.56667000
O  6.60678000  6.59441000  3.25700000
H  6.60401000  6.75325000  2.30077000
H  6.53419000  7.51802000  3.65428000
O  4.60435000  2.55032000  7.67513000
H  3.88979000  2.02054000  7.30213000
H  5.42295000  2.08301000  7.45337000
O  6.91089000  6.46658000  7.65215000
H  6.23282000  5.83488000  7.41847000
H  7.74303000  6.01874000  7.50255000
O  6.89293000  1.17252000  14.11240000
H  6.80596000  0.22115600  14.40210000
H  6.81810000  1.11548000  13.14530000
O  4.68351000  5.09492000  14.24560000
H  4.65300000  4.17555000  14.62190000
H  4.56085000  5.04159000  13.29740000
O  6.65458000  1.33471000  11.29280000
H  5.79981000  1.78565000  11.05580000
H  7.41847000  1.89362000  10.97600000
O  4.26516000  5.30074000  11.36090000
H  3.51679000  5.91199000  11.07070000
H  5.04352000  5.64391000  10.92540000
O  4.37022000  2.76210000  10.62720000
H  4.43231000  2.88449000  9.66673000
H  4.35694000  3.64691000  11.05250000
O  6.61133000  6.56146000  10.54840000
H  6.68802000  6.59325000  9.58121000
H  6.59402000  7.49848000  10.83350000
O  4.63135000  10.39520000  0.32337500
H  3.84321000  9.81003000  0.16271800
H  5.40031000  9.83626000  0.23475600
O  6.93290000  14.23150000  0.25294700
H  6.10778000  13.79360000  0.28905600
H  7.62198000  13.54940000  0.11202200
O  6.98026000  8.91273000  6.87679000
H  6.93921000  7.99085000  7.22244000
H  6.94616000  8.93316000  5.92795000
O  4.65221000  12.82220000  6.83760000
H  4.61240000  11.86760000  7.14003000
H  4.43107000  12.75750000  5.90240000
O  6.54900000  9.16977000  4.01569000
H  5.80800000  9.67293000  3.66642000
H  7.36075000  9.62320000  3.73177000
O  4.38514000  13.06530000  3.99969000
H  3.64032000  13.64900000  3.71170000
H  5.24063000  13.54320000  3.84843000
O  4.32529000  10.50770000  3.20646000
H  4.29719000  10.57300000  2.24758000
H  4.36752000  11.42690000  3.58886000
O  6.58895000  14.44340000  3.24994000
H  6.74409000  14.66320000  2.31440000
H  6.68808000  15.37570000  3.68975000
O  4.62625000  10.28450000  7.59335000
H  3.81210000  9.73940000  7.40692000
H  5.42080000  9.72709000  7.49003000
O  6.82652000  14.22690000  7.66551000
H  6.06726000  13.71020000  7.38793000
H  7.59875000  13.72650000  7.30010000
O  6.91964000  8.88875000  14.20330000
H  6.96351000  7.91423000  14.49800000
H  6.88893000  8.91118000  13.22100000
O  4.65290000  12.83850000  14.26170000
H  4.62664000  11.92730000  14.63140000
H  4.49794000  12.67900000  13.32610000
O  6.53002000  9.11906000  11.37480000
H  5.69384000  9.54059000  11.16100000
H  7.19796000  9.82375000  11.17910000
O  4.31944000  13.05050000  11.36820000
H  3.62441000  13.64440000  11.10380000
H  5.21356000  13.45410000  11.22780000
O  4.31174000  10.54580000  10.56790000
H  4.56497000  10.53810000  9.61017000
H  4.23776000  11.49540000  10.78820000
O  6.48783000  14.37240000  10.55920000
H  6.68609000  14.58090000  9.66402000
H  6.58660000  15.24380000  11.03100000
192
Lattice="8.9940000000 0 0  0.0000000000 15.5780000000 0  0.0000000000 0.0000000000 14.6440000000" Properties=species:S:1:pos:R:3 step=300
O  0.17315700  2.48797000  0.41417000
H  8.41845000  1.95691000  0.05132440
H  1.02826000  1.98896000  0.26733100
O  2.48345000  6.40979000  0.44650100
H  1.67511000  5.95610000  0.13703700
H  3.25283000  5.84020000  0.19414500
O  2.45846000  1.26023000  6.81892000
H  2.57447000  0.33861600  7.15098000
H  2.29094000  1.23944000  5.86388000
O  0.25345200  5.09859000  7.00373000
H  0.22052500  4.17645000  7.34723000
H  0.13193600  5.04234000  6.03295000
O  2.02283000  1.39489000  3.98967000
H  1.25475000  1.93804000  3.72275000
H  2.84919000  1.86757000  3.75958000
O  8.87401000  5.31093000  3.99373000
H  8.04178000  5.76135000  3.78216000
H  0.64582000  5.78580000  3.69952000
O  8.79759000  2.70355000  3.38827000
H  8.67761000  2.83176000  2.42691000
H  8.88715000  3.63513000  3.75483000
O  2.13197000  6.61111000  3.27864000
H  2.28408000  6.59566000  2.33522000
H  2.11585000  7.55802000  3.50410000
O  0.25038900  2.64142000  7.71931000
H  8.44975000  2.17734000  7.38987000
H  1.03091000  2.09348000  7.55557000
O  2.46133000  6.31014000  7.72359000
H  1.70155000  5.78695000  7.39914000
H  3.22505000  5.81048000  7.45220000
O  2.37313000  1.11758000  14.32330000
H  2.37344000  0.15232500  14.56920000
H  2.42599000  1.22505000  13.34170000
O  0.09501870  5.07987000  14.22070000
H  0.12517400  4.09074000  14.45730000
H  -0.34640400  5.12910000  13.35620000
O  2.14531000  1.22165000  11.37960000
H  1.42689000  1.85077000  11.29850000
H  2.96989000  1.73371000  11.00560000
O  8.72505000  5.26041000  11.27940000
H  8.06597000  5.92151000  10.95520000
H  0.61689500  5.67102000  11.19230000
O  8.80748000  2.85223000  10.61870000
H  8.97612000  2.87691000  9.67743000
H  8.69984000  3.79670000  10.94800000
O  2.03381000  6.55292000  10.53540000
H  2.05606000  6.63464000  9.56268000
H  2.02151000  7.48438000  10.90710000
O  0.21705300  10.27460000  0.27029400
H  8.37132000  9.78419000  0.01214920
H  0.96630500  9.70188000  0.01377030
O  2.39668000  14.27790000  0.30735300
H  1.64085000  13.65540000  0.14497300
H  3.18763000  13.72320000  0.14826300
O  2.55259000  8.95916000  6.90490000
H  2.58646000  8.02312000  7.20020000
H  2.21220000  8.89709000  5.99339000
O  0.20823300  12.99130000  6.93920000
H  0.34910900  12.06820000  7.31693000
H  0.13281100  12.81540000  5.96704000
O  2.11349000  9.22603000  3.93920000
H  1.34225000  9.82767000  3.79002000
H  2.94836000  9.75734000  3.77485000
O  8.73697000  13.05590000  4.03254000
H  8.03097000  13.64360000  3.71191000
H  0.58435900  13.52200000  3.86631000
O  8.83404000  10.53340000  3.28457000
H  8.87491000  10.46680000  2.32222000
H  8.72681000  11.46600000  3.48574000
O  2.05769000  14.42650000  3.34968000
H  2.05798000  14.48030000  2.38916000
H  1.98998000  15.36380000  3.70752000
O  0.10449100  10.27280000  7.63062000
H  8.32753000  9.65573000  7.39540000
H  0.94203400  9.77522000  7.59346000
O  2.48153000  14.23510000  7.54197000
H  1.65304000  13.74850000  7.40246000
H  3.28709000  13.65600000  7.40578000
O  2.33342000  8.92184000  14.18390000
H  2.43723000  7.97073000  14.42520000
H  2.33285000  8.94181000  13.21970000
O  0.07557680  12.84290000  14.27980000
H  0.16761900  11.88900000  14.58350000
H  0.11183900  12.82920000  13.30630000
O  2.04499000  9.10433000  11.49790000
H  1.26383000  9.67109000  11.33550000
H  2.80851000  9.61804000  11.17660000
O  8.87824000  13.02470000  11.32540000
H  8.04277000  13.53200000  11.19310000
H  0.62197200  13.63630000  11.01660000
O  8.92888000  10.64840000  10.65950000
H  8.88045000  10.59770000  9.69416000
H  9.14020000  11.56970000  10.90170000
O  2.06448000  14.34320000  10.53200000
H  2.02252000  14.44150000  9.58111000
H  2.15564000  15.26020000  10.83850000
O  4.71244000  2.53936000  0.51031200
H  4.00249000  1.85970000  0.35122800
H  5.53475000  2.06900000  0.22176700
O  6.93886000  6.45290000  0.37645700
H  6.15541000  5.88541000  0.12147400
H  7.74911000  5.91191000  0.34444900
O  6.92156000  1.14070000  6.82670000
H  6.87362000  0.25526900  7.25197000
H  6.71745000  0.93834800  5.91648000
O  4.65227000  4.93294000  6.86955000
H  4.62547000  3.99810000  7.22408000
H  4.43507000  4.90620000  5.92234000
O  6.61747000  1.35859000  3.92022000
H  5.87860000  1.98511000  3.79774000
H  7.44985000  1.89225000  3.81624000
O  4.30481000  5.17497000  4.06662000
H  3.54973000  5.78036000  3.92514000
H  5.12764000  5.65168000  3.80650000
O  4.32764000  2.72319000  3.30680000
H  4.52952000  2.73334000  2.36291000
H  4.38774000  3.65354000  3.64866000
O  6.61658000  6.59889000  3.28274000
H  6.68463000  6.74396000  2.30459000
H  6.56690000  7.52185000  3.68107000
O  4.56430000  2.53492000  7.66201000
H  3.76018000  2.07803000  7.33066000
H  5.36045000  2.00711000  7.51510000
O  6.90692000  6.44967000  7.65426000
H  6.17997000  5.84796000  7.47892000
H  7.75109000  6.00547000  7.51501000
O  6.87746000  1.18315000  14.00530000
H  7.03011000  0.26802100  14.35230000
H  6.82829000  1.18286000  13.04080000
O  4.72057000  5.11880000  14.21590000
H  4.73861000  4.19575000  14.58660000
H  4.56278000  5.02630000  13.24080000
O  6.70636000  1.34005000  11.25630000
H  5.88818000  1.84166000  11.05910000
H  7.48557000  1.92658000  11.00720000
O  4.21555000  5.35060000  11.38590000
H  3.39743000  5.81428000  11.02420000
H  5.04203000  5.80562000  11.12060000
O  4.40696000  2.77602000  10.67600000
H  4.38909000  2.90404000  9.70777000
H  4.22340000  3.70162000  11.01360000
O  6.62682000  6.52845000  10.51340000
H  6.74100000  6.55648000  9.56169000
H  6.59267000  7.45929000  10.82210000
O  4.62726000  10.40110000  0.30662100
H  3.83759000  9.84147000  0.12864800
H  5.39963000  9.86512000  0.12473900
O  6.91938000  14.23690000  0.19300300
H  6.12801000  13.71570000  0.11696600
H  7.70242000  13.65250000  0.10994500
O  7.02872000  8.89374000  6.85246000
H  6.97808000  7.92502000  7.13397000
H  6.89142000  8.86153000  5.88909000
O  4.63474000  12.78490000  6.80411000
H  4.69464000  11.81790000  7.09682000
H  4.45373000  12.84700000  5.86339000
O  6.51460000  9.17278000  4.01034000
H  5.76288000  9.76581000  3.81382000
H  7.34260000  9.63880000  3.83607000
O  4.39232000  13.08710000  3.98373000
H  3.69059000  13.74370000  3.85125000
H  5.23506000  13.53610000  3.72379000
O  4.31743000  10.53670000  3.19492000
H  4.28652000  10.62270000  2.22721000
H  4.37221000  11.47730000  3.48281000
O  6.61283000  14.46500000  3.25109000
H  6.77504000  14.62050000  2.31162000
H  6.49680000  15.40940000  3.64585000
O  4.63615000  10.24930000  7.57728000
H  3.83408000  9.74451000  7.26052000
H  5.41496000  9.71234000  7.34647000
O  6.77502000  14.22040000  7.64308000
H  5.99718000  13.69420000  7.42743000
H  7.59736000  13.74380000  7.37087000
O  6.94152000  8.85424000  14.18880000
H  7.00051000  7.88536000  14.46650000
H  6.81153000  8.87455000  13.21500000
O  4.64409000  12.82130000  14.26730000
H  4.62243000  11.91560000  14.65490000
H  4.54389000  12.77280000  13.31360000
O  6.48710000  9.12225000  11.40080000
H  5.65693000  9.58108000  11.28440000
H  7.22430000  9.73953000  11.13950000
O  4.30251000  13.05250000  11.39220000
H  3.62167000  13.67300000  11.14020000
H  5.13586000  13.49530000  11.09000000
O  4.30339000  10.56240000  10.54390000
H  4.43431000  10.57960000  9.57329000
H  4.28312000  11.46690000  10.89500000
O  6.41624000  14.36230000  10.55610000
H  6.58611000  14.45350000  9.59127000
H  6.56914000  15.26410000  10.96450000
192
Lattice="8.9940000000 0 0  0.0000000000 15.5780000000 0  0.0000000000 0.0000000000 14.6440000000" Properties=species:S:1:pos:R:3 step=400
O  0.15338700  2.47758000  0.43167200
H  8.39462000  1.96956000  0.07562420
H  0.93938500  1.88565000  0.34474100
O  2.51513000  6.39803000  0.45469700
H  1.77068000  5.86736000  0.10257100
H  3.33611000  5.87367000  0.26854500
O  2.47836000  1.27776000  6.79312000
H  2.48925000  0.33902500  7.06257000
H  2.31159000  1.26304000  5.85477000
O  0.25977800  5.14013000  7.03977000
H  0.24805600  4.19253000  7.29375000
H  0.07616380  5.11935000  6.07976000
O  1.99439000  1.41272000  4.01593000
H  1.20400000  1.98346000  3.98093000
H  2.78966000  1.96531000  3.79907000
O  8.90889000  5.33478000  4.02340000
H  8.11649000  5.88054000  3.84480000
H  0.67355300  5.84539000  3.72085000
O  8.81485000  2.72632000  3.43756000
H  8.82517000  2.67795000  2.45229000
H  8.83778000  3.71463000  3.65784000
O  2.16853000  6.60593000  3.27592000
H  2.45144000  6.64094000  2.34120000
H  2.08965000  7.52507000  3.59001000
O  0.25353600  2.64752000  7.73202000
H  8.50212000  2.03672000  7.54617000
H  1.03054000  2.09278000  7.50549000
O  2.49778000  6.30833000  7.75723000
H  1.64830000  5.86594000  7.52453000
H  3.25572000  5.77522000  7.50780000
O  2.37659000  1.13430000  14.36420000
H  2.48423000  0.18775300  14.61230000
H  2.43861000  1.09227000  13.42290000
O  0.03938780  5.05876000  14.24360000
H  0.09735530  4.11571000  14.60460000
H  -0.16224500  5.02859000  13.31240000
O  2.17371000  1.18969000  11.38850000
H  1.36459000  1.73907000  11.35580000
H  2.98797000  1.76683000  11.13520000
O  8.70438000  5.28616000  11.27800000
H  7.90480000  5.79907000  11.00310000
H  0.53537900  5.73565000  10.98740000
O  8.80033000  2.85283000  10.62890000
H  9.01334000  2.86573000  9.70663000
H  8.73584000  3.83912000  10.90640000
O  1.99054000  6.57199000  10.52330000
H  2.07725000  6.47386000  9.55754000
H  1.95381000  7.53802000  10.78510000
O  0.22785400  10.25860000  0.28077700
H  8.43411000  9.68994000  0.08233270
H  1.03558000  9.78724000  0.02473110
O  2.40247000  14.23650000  0.30360800
H  1.58849000  13.74980000  0.07764230
H  3.23157000  13.72260000  0.19042000
O  2.56433000  8.93665000  6.90336000
H  2.66582000  8.00938000  7.19108000
H  2.28113000  8.98981000  5.97452000
O  0.24525300  13.00050000  6.93868000
H  0.34191900  12.07050000  7.33168000
H  -0.02216960  12.85320000  5.98342000
O  2.11829000  9.26351000  3.92859000
H  1.37871000  9.89394000  3.83607000
H  2.96105000  9.75912000  3.72358000
O  8.70876000  13.06650000  4.03966000
H  7.92222000  13.60720000  3.83175000
H  0.51745300  13.59230000  3.82446000
O  8.82556000  10.56040000  3.27440000
H  8.95911000  10.59470000  2.32804000
H  8.80571000  11.48740000  3.58264000
O  2.04344000  14.42870000  3.39899000
H  2.15189000  14.41830000  2.44637000
H  1.94362000  15.39460000  3.63254000
O  0.11464100  10.28310000  7.64097000
H  8.37875000  9.61934000  7.35530000
H  0.96191400  9.84969000  7.45912000
O  2.49325000  14.28390000  7.50205000
H  1.68587000  13.77680000  7.36662000
H  3.23378000  13.66510000  7.28444000
O  2.34177000  8.91082000  14.17990000
H  2.44113000  8.00000000  14.55140000
H  2.23526000  8.88278000  13.22130000
O  0.06014530  12.82550000  14.30430000
H  0.06149900  11.85330000  14.60380000
H  0.09120530  12.80280000  13.33400000
O  2.04672000  9.09961000  11.53320000
H  1.24167000  9.62943000  11.32350000
H  2.80524000  9.56931000  11.13790000
O  8.87943000  13.04340000  11.32490000
H  8.08129000  13.51750000  11.07500000
H  0.70748500  13.60620000  11.13270000
O  8.96160000  10.60450000  10.68680000
H  8.85721000  10.63720000  9.72519000
H  9.01797000  11.55790000  10.94830000
O  2.04605000  14.31540000  10.49800000
H  2.14264000  14.39060000  9.55377000
H  2.05473000  15.20530000  10.90070000
O  4.74326000  2.53545000  0.56822600
H  3.91152000  2.01659000  0.45264400
H  5.49896000  1.97558000  0.28849100
O  6.94574000  6.43044000  0.37938500
H  6.23001000  5.77399000  0.25688700
H  7.78853000  5.96533000  0.31045400
O  6.96073000  1.14525000  6.79425000
H  6.95124000  0.23451200  7.13198000
H  6.87472000  1.09494000  5.85627000
O  4.67189000  4.89145000  6.83377000
H  4.69436000  3.98262000  7.23030000
H  4.52062000  4.72901000  5.89709000
O  6.59501000  1.36845000  3.89574000
H  5.84532000  1.99547000  3.79935000
H  7.46456000  1.77101000  3.72715000
O  4.33488000  5.14080000  4.08385000
H  3.51192000  5.67263000  3.91417000
H  5.08482000  5.66572000  3.72281000
O  4.31310000  2.70992000  3.32877000
H  4.49916000  2.68644000  2.38543000
H  4.37087000  3.66520000  3.59492000
O  6.62562000  6.61168000  3.28825000
H  6.82691000  6.64494000  2.31909000
H  6.56299000  7.57080000  3.56338000
O  4.52977000  2.52267000  7.67714000
H  3.73242000  2.05522000  7.35956000
H  5.27400000  1.93206000  7.50531000
O  6.90591000  6.44107000  7.65916000
H  6.14112000  5.91801000  7.38603000
H  7.69350000  5.89045000  7.49075000
O  6.86423000  1.21910000  13.94010000
H  6.98995000  0.25759800  14.15300000
H  6.82505000  1.20834000  12.96730000
O  4.75891000  5.11112000  14.19040000
H  4.74020000  4.16029000  14.51100000
H  4.53263000  5.12545000  13.21050000
O  6.73428000  1.34479000  11.20460000
H  5.91490000  1.88290000  11.18630000
H  7.49939000  1.98243000  11.03780000
O  4.18002000  5.37093000  11.40570000
H  3.37016000  5.90132000  11.10260000
H  4.94442000  5.96989000  11.25590000
O  4.43002000  2.80596000  10.70230000
H  4.39331000  2.82683000  9.72974000
H  4.33835000  3.73149000  11.07710000
O  6.63231000  6.50442000  10.44940000
H  6.75022000  6.58443000  9.50331000
H  6.55291000  7.40258000  10.78110000
O  4.59867000  10.36050000  0.29250000
H  3.79010000  9.89958000  -0.02549150
H  5.37791000  9.81398000  0.08047700
O  6.89223000  14.24520000  0.15300600
H  6.19132000  13.65960000  -0.13750300
H  7.70447000  13.74310000  0.04827730
O  7.06641000  8.86857000  6.80280000
H  6.97293000  7.93509000  7.13423000
H  6.82487000  8.93559000  5.85014000
O  4.64644000  12.74450000  6.77933000
H  4.70114000  11.75570000  7.01805000
H  4.63721000  12.81040000  5.82344000
O  6.47597000  9.17637000  4.02762000
H  5.67769000  9.74720000  3.92389000
H  7.24705000  9.72336000  3.85265000
O  4.39493000  13.11740000  3.95092000
H  3.57211000  13.63020000  3.83568000
H  5.18462000  13.62610000  3.69014000
O  4.30343000  10.59700000  3.18135000
H  4.42078000  10.49870000  2.22137000
H  4.19427000  11.53930000  3.43922000
O  6.64704000  14.47900000  3.25286000
H  6.66844000  14.40000000  2.29323000
H  6.54820000  15.48710000  3.47366000
O  4.66937000  10.23600000  7.57758000
H  3.87022000  9.72026000  7.26478000
H  5.46421000  9.80907000  7.24555000
O  6.73520000  14.21070000  7.61798000
H  6.00058000  13.60980000  7.36411000
H  7.54297000  13.66200000  7.51197000
O  6.95087000  8.84973000  14.17830000
H  6.89735000  7.91451000  14.47520000
H  6.73320000  8.83253000  13.24590000
O  4.61232000  12.85530000  14.28030000
H  4.62392000  11.88830000  14.47330000
H  4.63131000  12.85460000  13.30130000
O  6.44300000  9.09342000  11.41400000
H  5.69819000  9.67931000  11.19670000
H  7.26286000  9.63960000  11.24400000
O  4.29205000  13.06140000  11.40450000
H  3.43227000  13.46020000  11.22610000