ITEM: TIMESTEP
5000
ITEM: NUMBER OF ATOMS
384
ITEM: BOX BOUNDS xy xz yz pp pp pp
0.0000000000000000e+00 1.5645677531129000e+01 0.0000000000000000e+00
0.0000000000000000e+00 1.4707145294364000e+01 0.0000000000000000e+00
0.0000000000000000e+00 1.8073037030847999e+01 0.0000000000000000e+00
ITEM: ATOMS id type mass x y z vx vy vz
1 1 15.9994 1.05341 2.14039 3.02567 -2.7815 -2.18066 2.15973
2 2 1.008 1.06803 3.05634 3.40731 -7.40199 -1.50912 7.24205
3 2 1.008 0.330795 1.72459 3.50725 16.565 -29.3553 -9.6211
4 1 15.9994 5.39355 3.96088 0.970575 -2.40649 -2.22507 -4.08419
5 2 1.008 5.84119 4.20024 1.78853 8.29928 37.1996 -14.5765
6 2 1.008 5.42531 2.95722 0.841093 10.2637 -2.28211 -23.2007
7 1 15.9994 5.9724 5.7747 3.18281 4.47655 1.43345 3.26197
8 2 1.008 5.69821 5.55125 4.12285 5.46873 4.44376 -2.60002
9 2 1.008 6.14432 6.71925 3.16056 20.8517 1.56785 -25.3459
10 1 15.9994 5.48925 4.86782 5.78412 0.277268 -2.77121 4.99604
11 2 1.008 4.51332 4.99611 5.895 -22.6766 26.6653 -11.9795
12 2 1.008 5.88636 5.28299 6.56911 -17.3341 -25.8533 35.8949
13 1 15.9994 3.09627 1.13995 5.07687 -0.798547 5.92673 0.275652
14 2 1.008 2.69055 1.51702 4.27405 -14.9518 8.61177 5.24831
15 2 1.008 3.96797 1.47038 5.17978 -24.4113 -31.0461 0.956575
16 1 15.9994 2.79586 5.55931 5.83304 4.13335 4.70455 1.84162
17 2 1.008 2.59389 6.51599 5.76603 9.63854 13.8207 -7.09247
18 2 1.008 2.36716 5.22955 6.68986 -2.50454 -0.98129 11.2494
19 1 15.9994 5.12727 1.21386 0.829921 4.25924 -2.45882 -3.51294
20 2 1.008 4.16368 1.05585 0.803452 1.53101 0.526505 7.25863
21 2 1.008 5.42759 0.950121 1.7144 17.2587 17.7943 4.70075
22 1 15.9994 5.48053 2.20086 5.57305 1.9549 -2.79295 0.548244
23 2 1.008 6.08648 1.73194 6.1841 1.91405 -1.33955 -31.147
24 2 1.008 5.66971 3.14304 5.5927 11.1069 18.4305 6.90001
25 1 15.9994 1.70027 4.52977 8.04601 4.59834 -0.158651 -6.89337
26 2 1.008 1.81671 3.55373 8.08399 1.06508 24.8678 20.0057
27 2 1.008 1.94633 4.83633 8.92831 -8.57723 4.7939 -24.5138
28 1 15.9994 1.34286 4.75715 3.76044 -2.75456 -3.62724 -1.67304
29 2 1.008 1.87955 5.02014 2.9892 -2.32739 -18.8601 21.0232
30 2 1.008 1.98601 4.86954 4.47971 7.60174 9.81432 3.18622
31 1 15.9994 2.43219 5.01221 1.30476 -2.26019 -3.30784 1.6681
32 2 1.008 3.35771 4.79996 1.11131 -7.99207 9.25996 -2.40143
33 2 1.008 1.97302 4.64018 0.556431 -15.6173 21.7946 10.1503
34 1 15.9994 2.13345 0.828574 0.668074 -2.83592 1.97931 -2.96536
35 2 1.008 2.00937 1.3853 1.47191 22.4847 -14.7719 11.0115
36 2 1.008 1.93303 14.6581 0.925398 24.9647 -11.5226 24.209
37 1 15.9994 6.41204 0.965256 3.34043 -2.18588 6.98163 0.313414
38 2 1.008 6.19872 1.50756 4.13414 4.31405 7.43275 11.6596
39 2 1.008 7.41526 1.09532 3.37581 -0.835898 3.46185 7.98927
40 1 15.9994 6.91443 0.888005 7.43861 3.00748 1.66307 -5.05494
41 2 1.008 6.3901 1.0734 8.25738 1.83823 3.51594 -16.4285
42 2 1.008 6.79039 14.6376 7.27326 8.53916 0.466358 -1.51434
43 1 15.9994 6.55675 5.88657 8.01188 7.84419 5.72268 -6.29276
44 2 1.008 7.41479 5.55881 8.33358 18.9582 1.91484 -3.91994
45 2 1.008 6.36983 6.83844 7.99688 -5.4781 -20.0845 5.47188
46 1 15.9994 1.75311 1.82269 7.34956 -1.84835 3.03607 -0.140376
47 2 1.008 2.21578 1.48586 6.57549 1.09306 -25.0144 -19.6891
48 2 1.008 0.886993 1.49891 7.53645 5.70502 -5.82559 -26.8702
49 1 15.9994 9.24409 2.08912 3.64392 -0.566633 0.685985 3.65297
50 2 1.008 9.15307 3.01186 3.42181 2.35067 16.8688 -10.8956
51 2 1.008 9.6601 1.64195 2.88885 5.06251 -11.0872 -7.99526
52 1 15.9994 13.1904 4.67309 0.763049 0.333129 1.65108 -1.99633
53 2 1.008 12.9998 3.18865 0.840477 12.2008 10.1337 19.237
54 2 1.008 13.5439 4.97436 17.9754 6.24701 1.67302 4.14681
55 1 15.9994 14.5288 5.62284 2.91009 -3.5755 -3.64037 -0.831396
56 2 1.008 15.4024 5.2811 3.22839 17.6405 14.7457 -5.90811
57 2 1.008 13.9223 4.90032 1.41168 6.08391 20.0011 19.2045
58 1 15.9994 13.2207 4.55569 5.33946 -1.37246 -0.762385 1.97891
59 2 1.008 13.5889 5.05088 4.54139 8.52983 5.27555 -9.50509
60 2 1.008 12.2686 4.71818 5.42863 15.2084 0.389946 -3.13692
61 1 15.9994 10.9154 0.785799 5.52759 -1.34142 -2.16093 -0.192385
62 2 1.008 10.4797 1.32447 4.84755 -14.5514 -8.22206 14.688
63 2 1.008 11.8672 0.838382 5.29543 -7.43462 24.3792 2.81944
64 1 15.9994 10.5495 5.1569 5.54734 -4.89567 -1.87469 -3.14053
65 2 1.008 9.87443 4.7646 4.98954 0.465484 5.2908 -27.2546
66 2 1.008 10.5239 6.08741 5.37041 -7.83868 -26.7118 -3.56862
67 1 15.9994 12.9025 2.17761 0.841074 1.95808 -3.04472 -4.68567
68 2 1.008 11.3387 1.47736 1.04202 -4.60309 -9.9938 8.05824
69 2 1.008 13.3395 1.90283 1.66163 16.3969 -5.70408 -0.249964
70 1 15.9994 13.5573 1.79941 4.78049 1.68288 0.446212 6.91466
71 2 1.008 13.9353 1.37483 8.58003 5.10143 -2.93493 9.23008
72 2 1.008 13.5811 2.70654 5.13405 15.0959 -4.36615 10.8458
73 1 15.9994 8.77525 4.40902 8.56042 1.91037 -7.4537 9.10706
74 2 1.008 8.7093 1.26156 7.68134 -16.5458 11.6306 -34.1892
75 2 1.008 9.13475 3.72081 7.99006 2.20652 -9.23888 19.9453
76 1 15.9994 8.75888 4.9034 3.32657 -3.96304 0.896438 -3.63085
77 2 1.008 7.84788 5.20158 3.05304 -29.4134 5.64589 -15.3243
78 2 1.008 9.37054 5.18434 2.65646 2.49869 -0.483236 -17.2855
79 1 15.9994 10.5923 5.74194 1.27148 -6.36057 3.74839 1.60044
80 2 1.008 10.0445 5.37238 0.556864 13.712 1.04431 16.0552
81 2 1.008 11.5532 5.38156 1.15817 13.2121 -10.4383 -16.4716
82 1 15.9994 10.4718 1.12477 1.35041 -2.82773 -2.5334 -3.029
83 2 1.008 9.90093 1.12103 0.568126 -8.24475 26.5971 9.18599
84 2 1.008 14.8018 1.0838 6.19003 -18.9887 18.2604 -12.5131
85 1 15.9994 14.7933 1.13578 5.25248 -6.37589 0.977848 6.51854
86 2 1.008 14.6102 0.0365263 8.22163 4.55578 6.33775 -24.0941
87 2 1.008 14.0141 4.9853 6.7576 16.7305 1.93287 2.65536
88 1 15.9994 14.5925 0.957261 7.97944 8.66048 -7.65189 5.21855
89 2 1.008 12.9285 3.32673 10.2072 3.90298 -5.51433 4.04437
90 2 1.008 12.2348 1.88252 10.2986 -6.74945 23.234 24.9771
91 1 15.9994 14.424 5.22716 7.63592 -1.29719 5.64697 2.87761
92 2 1.008 15.246 4.82284 7.82965 0.467255 10.2396 3.1455
93 2 1.008 14.0243 6.91269 8.19017 11.1543 -16.6305 -28.4673
94 1 15.9994 9.66245 1.40356 7.83626 -6.03866 3.69146 -7.9225
95 2 1.008 10.1119 1.11442 6.9784 -0.446448 -15.6937 -4.92351
96 2 1.008 10.4077 1.34523 9.34715 7.15067 4.67491 -15.6277
97 1 15.9994 0.987794 9.14087 3.41664 -0.848907 -2.04383 4.28249
98 2 1.008 1.52059 8.90687 4.21876 -23.656 -5.77784 -8.80746
99 2 1.008 0.942197 10.1215 3.37123 -15.3009 -20.2004 -18.5757
100 1 15.9994 4.56362 12.1254 1.20363 -1.35078 -8.28223 1.21227
101 2 1.008 4.46212 11.1612 1.2951 -10.8109 19.655 -13.6719
102 2 1.008 2.92294 12.7465 1.09819 -8.20198 15.0498 -3.77554
103 1 15.9994 6.29236 12.8666 3.48201 3.27287 -1.46913 -5.41176
104 2 1.008 7.17866 12.5167 3.58216 -1.69585 -8.48349 -0.0709245
105 2 1.008 4.83588 12.3966 2.0875 12.2017 4.28394 -2.22241
106 1 15.9994 4.98682 12.0286 5.6175 -2.77467 2.37692 -6.038
107 2 1.008 6.12081 12.5405 6.86521 2.91425 0.285762 6.92055
108 2 1.008 5.41148 12.2378 4.73108 2.4879 -22.0402 31.3929
109 1 15.9994 2.49581 8.2069 5.62236 -0.138626 0.932435 3.34773
110 2 1.008 3.42203 8.56059 5.72941 -17.178 -13.4318 -18.7467
111 2 1.008 2.0095 8.49099 6.42032 7.6863 -1.78363 -11.3749
112 1 15.9994 2.36523 12.923 5.33193 2.43368 -1.95822 -3.55277
113 2 1.008 2.54149 13.8612 5.32071 13.6993 5.03296 -1.45582
114 2 1.008 4.00907 12.187 5.53346 8.45155 -1.34796 -0.0408202
115 1 15.9994 4.63948 9.44148 0.751502 5.39702 -1.44846 4.75983
116 2 1.008 3.9192 8.75777 0.819278 -19.9238 -12.6511 -13.814
117 2 1.008 5.19219 9.14452 0.0211049 -3.23926 -4.12722 12.695
118 1 15.9994 5.07433 9.2681 5.52544 -1.94302 -1.0007 -0.557903
119 2 1.008 5.46624 9.11341 4.60301 -15.474 -12.2868 -7.91555
120 2 1.008 5.06432 10.2785 5.60498 30.703 -2.20975 -2.2071
121 1 15.9994 2.68018 11.181 7.40363 7.96618 -1.27194 5.78761
122 2 1.008 1.20883 10.0992 7.94731 -2.82347 -1.63403 0.42431
123 2 1.008 2.23324 11.9013 6.96679 10.5474 -9.43879 22.3363
124 1 15.9994 0.686014 12.2266 3.47188 -3.99451 1.1859 -2.84205
125 2 1.008 15.3893 12.4193 3.34114 11.077 15.0728 -4.45124
126 2 1.008 1.69956 12.6617 4.67858 -4.45267 18.4772 -4.05675
127 1 15.9994 1.93377 12.8361 1.09638 0.438025 -1.72295 2.92001
128 2 1.008 1.62756 12.4842 0.200443 23.5676 3.47296 -1.50384
129 2 1.008 1.09828 12.6031 2.615 17.1695 -16.2363 13.6638
130 1 15.9994 2.55644 7.76967 1.31094 0.42841 1.95296 5.7432
131 2 1.008 2.4242 6.84925 1.33517 16.1197 -9.25003 6.71891
132 2 1.008 2.05992 8.05233 2.07134 18.7463 2.95877 -4.30708
133 1 15.9994 6.20059 8.77087 2.95956 2.39206 2.89159 1.4055
134 2 1.008 7.11732 9.0628 2.95073 14.0604 -13.0755 -26.4695
135 2 1.008 5.79533 8.829 2.07059 4.44311 -2.47194 6.71653
136 1 15.9994 6.1577 8.61666 7.76096 -2.6733 -3.09279 -0.507387
137 2 1.008 5.80766 8.65953 6.82818 16.4527 -21.5905 13.9275
138 2 1.008 7.11071 8.81758 7.62532 -1.56617 3.76286 -5.59331
139 1 15.9994 6.8235 12.9643 7.43547 0.842486 -2.61791 -1.23037
140 2 1.008 3.45644 14.3741 12.2089 -5.77661 -26.9334 -14.3411
141 2 1.008 7.72307 12.6425 7.18663 -2.67537 -19.9709 -11.6167
142 1 15.9994 1.17434 9.13567 8.08652 -3.54659 6.79183 1.77806
143 2 1.008 0.247525 8.8987 8.11738 -13.6711 -25.222 9.09936
144 2 1.008 2.41229 8.7919 9.19395 2.98496 7.59773 -16.0362
145 1 15.9994 9.03026 9.46478 3.33897 2.01494 -5.783 1.56996
146 2 1.008 9.54692 9.03984 2.65878 -6.03867 -11.1895 1.60212
147 2 1.008 9.34174 8.93392 4.10705 27.319 -8.46833 -4.82438
148 1 15.9994 12.6155 11.6079 1.64584 1.7826 -1.46579 -1.4737
149 2 1.008 12.6392 10.6897 1.31352 -7.52556 7.29439 -1.18179
150 2 1.008 11.6731 11.96 1.73901 6.18491 18.6504 8.47166
151 1 15.9994 14.1593 13.7667 2.61583 3.38376 10.3091 1.32055
152 2 1.008 13.3791 10.8227 3.83462 10.2398 4.6637 -1.09879
153 2 1.008 13.4169 13.16 2.50957 19.631 1.64085 -26.8768
154 1 15.9994 13.3526 11.1536 4.72702 2.88642 1.16461 -1.29796
155 2 1.008 12.5805 11.7706 4.83682 5.79602 5.38865 -13.649
156 2 1.008 14.5032 11.3404 6.61081 3.29583 23.359 -19.5541
157 1 15.9994 10.2132 8.21195 5.36249 3.27547 3.65984 -0.384662
158 2 1.008 11.1786 8.26012 5.54864 -1.03813 -2.47839 1.87819
159 2 1.008 9.75648 8.3516 6.22766 -32.6855 1.22254 -14.124
160 1 15.9994 11.016 12.641 5.16804 2.02292 -1.70759 5.47909
161 2 1.008 10.1919 12.5142 4.69302 -15.9489 4.78221 -7.46014
162 2 1.008 11.0139 13.6046 5.39306 -22.4939 -7.73014 -13.9192
163 1 15.9994 12.8451 8.98733 0.640675 -0.0604509 3.95921 0.867453
164 2 1.008 13.4231 8.71969 17.9586 -12.9353 4.45621 -5.72448
165 2 1.008 13.2545 8.52762 1.45112 -18.6008 11.4512 -9.17735
166 1 15.9994 12.9869 8.57104 5.81483 2.05917 3.23703 -1.05865
167 2 1.008 13.5231 8.07573 3.88838 -15.8924 6.15363 8.89693
168 2 1.008 13.2463 9.50042 5.84186 -15.4717 15.999 -16.86
169 1 15.9994 9.68354 11.5888 7.44187 2.55881 -2.06699 -0.582675
170 2 1.008 10.2767 11.7863 6.6954 7.91099 -25.0175 30.0653
171 2 1.008 10.0704 12.0606 8.23278 -11.7471 -1.2712 19.3257
172 1 15.9994 8.77215 12.1097 3.49681 3.61921 5.41607 0.459032
173 2 1.008 8.90964 11.1761 3.42913 9.21497 4.5814 -24.1396
174 2 1.008 9.21463 12.4168 2.65652 -2.56792 -13.4792 0.466906
175 1 15.9994 10.2429 13.0483 1.37334 -4.06381 0.802354 -1.2496
176 2 1.008 10.1286 13.0386 0.403871 5.02178 -20.9272 3.52845
177 2 1.008 10.4073 13.9849 1.53995 12.2173 16.0906 -7.49991
178 1 15.9994 10.174 8.32644 1.06978 -3.52049 1.77363 -0.532851
179 2 1.008 10.2793 7.36283 1.12817 -1.56726 22.6666 12.9022
180 2 1.008 11.1283 8.50929 0.819957 -6.05747 13.5283 0.464397
181 1 15.9994 14.1181 8.25511 3.0907 -3.00577 -4.70043 1.48944
182 2 1.008 14.5713 6.61841 2.8974 -12.1566 1.57798 11.9154
183 2 1.008 14.9657 8.61427 3.42153 2.28767 7.33108 18.6344
184 1 15.9994 14.0571 7.89276 8.15848 -1.94432 0.952748 5.98613
185 2 1.008 13.2915 8.14578 6.6498 -3.64832 14.0988 -8.55554
186 2 1.008 13.5155 8.32375 8.88239 9.54438 -11.62 -2.84255
187 1 15.9994 14.5928 11.441 7.55149 0.142222 -0.866679 1.13975
188 2 1.008 13.7023 11.2888 7.89888 5.03997 -15.3792 0.511105
189 2 1.008 12.7461 13.6179 6.71052 -0.283242 -8.21763 6.43439
190 1 15.9994 8.91535 9.00935 7.76822 -2.2874 -1.28085 -0.602611
191 2 1.008 9.18655 9.95417 7.80666 -5.4287 -18.4115 2.13959
192 2 1.008 9.23597 8.64718 8.63905 -0.175305 -5.46768 -8.12673
193 1 15.9994 1.42143 2.01253 12.4326 -1.88582 -2.31867 -1.50484
194 2 1.008 2.10167 1.06245 10.9775 14.8634 -4.53438 -11.9751
195 2 1.008 0.439105 1.82674 12.5715 19.1858 19.354 3.6405
196 1 15.9994 5.25655 4.50548 10.1871 -1.37932 -1.73026 -0.575023
197 2 1.008 5.79197 4.92665 10.8981 16.7087 5.14614 -12.0537
198 2 1.008 5.63468 4.78287 9.31762 12.3232 -26.2959 1.70181
199 1 15.9994 6.50618 5.93317 12.3221 7.8594 -0.976598 -4.67446
200 2 1.008 6.02511 5.47816 13.0624 8.60094 -21.8294 -13.0199
201 2 1.008 6.13056 6.87152 12.3983 -1.67873 6.61273 -14.7697
202 1 15.9994 5.50542 4.77826 14.3964 -1.87815 2.81781 -3.8883
203 2 1.008 5.6102 2.8127 14.7912 22.7696 -21.2966 6.42482
204 2 1.008 4.53269 4.78747 14.3897 0.544413 -11.3939 42.9061
205 1 15.9994 2.87062 1.31958 14.7173 0.667436 -3.35799 -2.71992
206 2 1.008 2.06071 1.4037 15.2623 -10.9093 -18.3933 -11.8934
207 2 1.008 2.51387 1.52501 13.8544 -7.11258 0.221581 19.3426
208 1 15.9994 3.14989 5.74733 15.7343 -3.07994 0.590656 10.454
209 2 1.008 2.90343 6.63391 15.4928 -8.70715 8.95116 25.8307
210 2 1.008 3.94727 5.84958 16.3245 9.85485 -12.4114 -2.90485
211 1 15.9994 5.30044 1.6736 9.97759 0.820717 -2.68483 -0.787589
212 2 1.008 4.42273 1.34411 9.89039 -8.57216 -9.59312 -6.47124
213 2 1.008 5.28383 2.6621 9.97438 -19.3271 9.8136 -14.0838
214 1 15.9994 5.48514 1.85144 14.8426 -0.953138 -0.995662 -1.62844
215 2 1.008 6.25975 0.740877 15.8645 -10.5929 -11.2388 11.5078
216 2 1.008 4.50552 1.72235 14.8672 2.28455 -28.7067 -1.188
217 1 15.9994 1.11341 4.33551 16.7648 -8.23087 3.86107 2.82946
218 2 1.008 0.890748 3.37063 16.626 31.0644 12.367 6.62679
219 2 1.008 1.72964 4.63467 16.0748 9.58651 -5.78018 7.21538
220 1 15.9994 1.83051 4.94137 12.9387 7.68956 2.18068 0.0644926
221 2 1.008 1.54542 2.981 12.3508 1.4352 -0.017563 -3.14714
222 2 1.008 2.35756 5.29601 13.7144 -25.8072 8.74523 -0.448784
223 1 15.9994 2.85471 5.95179 10.5398 -3.30613 3.93888 -2.52279
224 2 1.008 2.13915 5.46273 12.1673 -0.193732 -14.1735 -15.7897
225 2 1.008 3.71499 5.52707 10.3183 -22.4526 26.1949 -11.354
226 1 15.9994 2.62628 0.859443 10.1535 1.02279 -2.05053 -0.819376
227 2 1.008 2.03385 0.917592 9.37821 -5.00383 -33.9315 3.58479
228 2 1.008 6.35653 1.75595 11.2224 -35.0641 -5.606 27.3534
229 1 15.9994 6.85119 1.84775 12.0755 -0.810922 6.66727 2.71369
230 2 1.008 6.47691 1.15497 12.6597 4.88798 9.88864 -11.9414
231 2 1.008 8.47711 1.95969 12.2997 15.7179 10.7345 28.9571
232 1 15.9994 6.73252 0.331252 16.628 -4.95285 -0.713742 1.95442
233 2 1.008 6.13436 0.539506 17.3436 -3.81185 14.817 -20.4534
234 2 1.008 8.17035 1.11825 16.9528 -1.66782 -9.30585 4.79843
235 1 15.9994 5.83273 5.74018 16.9962 0.145425 3.23029 -3.72941
236 2 1.008 5.7096 5.16465 15.2876 10.9458 7.14453 -10.9072
237 2 1.008 5.89148 5.10939 17.735 -25.9989 -25.1598 6.36293
238 1 15.9994 0.790007 1.59128 16.5016 2.6094 1.13965 7.07481
239 2 1.008 15.5423 1.23538 16.5737 4.65725 12.7197 31.0541
240 2 1.008 1.23992 1.38004 17.3442 -5.78002 19.6718 -13.3596
241 1 15.9994 9.47136 2.24585 12.5001 -1.90176 5.10937 3.18185
242 2 1.008 9.45416 3.23498 12.5274 31.3141 16.3773 12.5783
243 2 1.008 10.2179 1.46114 10.8526 13.2606 -5.36434 7.9043
244 1 15.9994 13.245 4.97197 10.2516 -5.95131 4.96985 -4.09577
245 2 1.008 13.8506 5.27603 10.9414 10.5029 -6.40074 -12.2647
246 2 1.008 13.599 4.95985 9.3588 -17.1821 -39.5231 6.83236
247 1 15.9994 14.7345 5.3807 12.5302 6.42607 -3.42012 -5.23872
248 2 1.008 15.5883 5.03704 12.8445 -5.4489 -10.6645 -17.6117
249 2 1.008 14.0172 5.0316 13.1082 17.6184 -17.8504 -12.8969
250 1 15.9994 12.8054 4.53902 14.1381 -0.615324 0.773594 1.51226
251 2 1.008 13.1334 4.81794 14.9845 -4.41746 14.1667 10.2275
252 2 1.008 12.4125 3.6651 14.2434 -9.26078 -4.39064 13.3638
253 1 15.9994 10.775 1.50607 14.7265 -0.471531 -0.838532 10.0531
254 2 1.008 10.3389 1.6917 13.8745 -6.84355 -21.4261 20.2161
255 2 1.008 9.64057 1.35805 16.4495 -10.7359 -3.39061 -21.224
256 1 15.9994 10.2223 5.78779 15.2285 -7.77314 -2.8019 3.04783
257 2 1.008 9.16864 5.03336 13.7406 -0.787901 -16.0901 -4.2068
258 2 1.008 11.0645 5.66468 14.7621 18.41 -9.73605 -10.3916
259 1 15.9994 13.0413 2.35558 10.2507 -3.55212 3.48603 -1.92185
260 2 1.008 14.1027 1.70961 11.7117 -10.2463 -7.74252 12.5731
261 2 1.008 13.8926 1.43991 13.1894 -13.3887 -15.9602 22.6666
262 1 15.9994 12.1786 1.77767 14.4379 -3.49877 2.84029 -0.0144753
263 2 1.008 13.5476 14.4946 16.7753 7.17172 -4.8989 1.30096
264 2 1.008 12.6449 1.29315 15.1287 -12.8999 6.82284 -16.4294
265 1 15.9994 9.27673 4.38184 17.3086 -1.49574 -1.5784 -3.52584
266 2 1.008 9.24756 3.37071 17.3798 7.09803 -15.5164 -9.45242
267 2 1.008 9.49231 4.60862 16.3905 6.02002 -9.88448 6.58173
268 1 15.9994 9.17851 5.18096 12.7923 -7.12992 -1.32542 -0.319803
269 2 1.008 8.25477 5.38425 12.6344 -0.807624 14.3772 -13.2649
270 2 1.008 10.1659 5.28036 11.3556 -13.6409 35.4596 0.673623
271 1 15.9994 10.5141 5.50317 10.5412 0.58082 9.94497 -1.51816
272 2 1.008 9.35732 4.52301 9.31684 4.81701 6.57256 19.0213
273 2 1.008 11.4637 5.24973 10.6346 18.9128 -38.1294 -3.67704
274 1 15.9994 10.765 1.05025 10.1969 0.75483 -0.0896619 2.06562
275 2 1.008 10.0392 7.32323 10.4272 7.26095 13.2078 12.7089
276 2 1.008 11.0768 8.51804 10.2453 5.91406 -1.48817 1.76978
277 1 15.9994 14.5279 1.22568 12.4363 0.765836 -7.7654 -2.81662
278 2 1.008 13.2204 1.17486 17.4146 2.14026 10.1005 7.28377
279 2 1.008 15.3034 4.98174 16.7247 10.6665 -11.0656 -21.182
280 1 15.9994 13.6612 0.782691 16.6025 0.883482 -2.94844 -2.08898
281 2 1.008 14.5289 6.31613 16.4025 2.97411 -1.24317 -3.96343
282 2 1.008 14.0036 8.62313 15.8459 28.2347 4.76263 30.8192
283 1 15.9994 14.4182 5.38289 16.533 0.13471 3.24472 2.29874
284 2 1.008 15.3498 8.41055 16.8698 -30.7869 -4.94198 13.6248
285 2 1.008 13.5548 9.00886 13.9498 13.0596 6.21004 8.14825
286 1 15.9994 9.03114 1.51849 17.1892 -4.93863 -7.39105 0.738313
287 2 1.008 6.40872 6.48024 17.1334 -16.3439 9.03514 -14.7094
288 2 1.008 10.1294 6.75275 15.2181 -7.9961 -20.2062 -10.0531
289 1 15.9994 1.66541 9.23706 12.3459 -2.84353 3.71289 3.98542
290 2 1.008 2.0565 8.95431 11.4905 31.7644 -22.2503 3.59576
291 2 1.008 1.70549 10.1947 12.3153 8.83766 0.670722 -9.73412
292 1 15.9994 6.20413 12.6892 10.0978 -6.30667 -3.31868 5.41653
293 2 1.008 6.64555 12.906 9.28299 -12.5448 11.9372 -7.18302
294 2 1.008 5.17386 12.7546 9.96222 -2.03742 13.7713 10.664
295 1 15.9994 7.20985 13.1482 12.6161 7.61434 -0.478828 -1.35294
296 2 1.008 6.56349 12.7473 13.2378 -1.758 3.48297 -20.5156
297 2 1.008 6.78357 13.0652 11.7358 10.2578 15.7967 4.92734
298 1 15.9994 5.74105 12.4094 14.8487 0.39396 -2.31252 4.35974
299 2 1.008 5.3506 10.5184 14.3668 -3.42022 21.0123 17.954
300 2 1.008 4.86799 12.8519 15.0925 1.96264 -15.6632 -3.08337
301 1 15.9994 2.58335 8.41409 14.865 -2.52784 -9.65529 2.90675
302 2 1.008 2.28337 8.63471 13.9668 32.1378 -32.0509 -2.31728
303 2 1.008 3.42702 8.87322 14.8671 20.784 -25.3458 -10.6156
304 1 15.9994 2.94213 13.2503 14.9242 -1.16945 -2.48505 -0.152993
305 2 1.008 2.90095 14.1978 15.0115 10.5899 -11.9378 8.52339
306 2 1.008 2.39036 12.8142 15.6456 -0.326308 10.8659 -2.12299
307 1 15.9994 5.56839 9.7983 9.88388 -8.11178 -2.10701 0.737465
308 2 1.008 5.7692 10.7365 9.8836 3.27284 16.5671 -4.0418
309 2 1.008 5.88119 9.45421 9.00822 24.0473 33.9672 11.9302
310 1 15.9994 5.03136 9.63555 14.3863 2.43517 2.4022 7.09316
311 2 1.008 5.88137 8.99071 15.7923 17.0146 -16.0547 -11.0857
312 2 1.008 5.24748 9.17446 13.5155 3.55351 -13.6105 13.7161
313 1 15.9994 1.33035 11.8985 16.7558 -2.75766 0.302194 4.53602
314 2 1.008 1.508 10.9379 16.9556 -14.4782 10.1003 -5.55445
315 2 1.008 0.380754 11.9523 16.7533 -4.07359 35.2252 -8.77239
316 1 15.9994 1.80178 11.9372 12.3142 -0.655471 5.82943 2.08924
317 2 1.008 0.883514 12.2387 12.1977 4.995 50.5532 -14.603
318 2 1.008 2.07959 12.4288 13.1717 3.17583 -8.84305 -11.2111
319 1 15.9994 3.4821 12.7191 10.054 0.571013 -0.328057 -3.93982
320 2 1.008 3.12377 12.2673 10.8465 4.17761 -47.0403 8.75742
321 2 1.008 2.92717 11.6433 8.24711 -12.6182 -12.9254 -1.57928
322 1 15.9994 2.84151 8.59072 10.0479 4.32214 -4.19844 -8.28036
323 2 1.008 3.0115 6.93308 10.3479 6.36778 -4.46493 -8.1629
324 2 1.008 3.7118 9.01499 10.0808 -22.3149 -1.90996 17.9287
325 1 15.9994 6.08171 8.59684 12.1656 -4.71813 -0.477508 -6.82967
326 2 1.008 6.99417 8.81004 12.3708 15.6326 39.5884 1.69913
327 2 1.008 5.82536 8.93794 11.3156 -11.4793 -5.36633 4.42727
328 1 15.9994 6.25468 8.57007 16.6437 3.68321 -0.646449 -2.32215
329 2 1.008 7.1964 8.89223 16.7749 20.2806 0.644517 -10.8857
330 2 1.008 9.4193 9.00569 17.893 7.17629 3.50603 8.4186
331 1 15.9994 6.71487 11.5775 17.6758 6.63676 -1.32149 -1.74428
332 2 1.008 6.37415 12.603 15.5596 -12.0386 -1.07725 31.0414
333 2 1.008 6.25062 10.982 17.0947 -24.428 9.45252 16.4223
334 1 15.9994 1.24642 9.09525 17.1442 -4.62185 3.89914 0.0468478
335 2 1.008 1.65866 8.57325 17.823 -7.62881 11.3895 -14.7544
336 2 1.008 1.64921 8.80801 16.2858 -13.2438 10.1385 -20.02
337 1 15.9994 8.81191 8.98075 12.6503 3.41021 1.72322 -2.22415
338 2 1.008 9.24875 8.71155 11.8228 -10.7221 -14.7972 3.40867
339 2 1.008 9.24382 8.55368 13.3794 18.4975 9.55365 19.567
340 1 15.9994 12.526 11.5601 11.3367 1.39907 8.55531 -2.41591
341 2 1.008 12.5618 10.2095 10.5461 -8.86596 -4.13389 6.65857
342 2 1.008 11.8447 12.1877 11.0521 2.49498 14.8989 -3.02503
343 1 15.9994 14.7032 13.02 12.7153 -4.49443 -1.19751 0.0116168
344 2 1.008 13.2448 12.0803 11.7213 -4.85334 -13.8448 -6.84555
345 2 1.008 14.4175 13.9288 12.5509 14.8152 -26.6806 1.35298
346 1 15.9994 13.4674 12.2378 15.1151 -2.88966 -1.20114 -3.23448
347 2 1.008 14.3876 12.8074 13.6391 8.37965 -21.8178 -4.63964
348 2 1.008 12.5028 12.5364 15.0768 -11.2725 -10.2127 26.6096
349 1 15.9994 10.3651 8.48996 14.929 6.56868 -0.170974 0.309579
350 2 1.008 11.2359 8.92604 14.8952 21.3761 14.7251 -22.2979
351 2 1.008 9.87803 8.95436 15.628 -4.47126 14.5408 -20.0562
352 1 15.9994 10.9587 13.106 14.4319 -2.10598 -2.82465 0.122037
353 2 1.008 10.5423 12.713 13.6347 7.7359 16.5879 27.5037
354 2 1.008 9.62257 12.707 16.0966 -6.07401 5.21649 -18.7402
355 1 15.9994 12.6315 9.22652 10.3391 6.74572 0.571477 0.536665
356 2 1.008 13.0528 8.77619 11.0735 1.6825 9.64156 -14.3939
357 2 1.008 15.3726 8.64141 12.5446 9.14173 -12.1716 3.82993
358 1 15.9994 13.066 9.39069 14.6802 4.99057 0.477832 0.0357584
359 2 1.008 13.3484 10.3272 14.7415 0.614945 -29.0272 -15.2434
360 2 1.008 14.6544 7.22335 12.4999 -2.20542 -23.5247 0.644289
361 1 15.9994 9.24936 13.0861 16.971 2.79794 -1.48726 -6.46561
362 2 1.008 8.37374 12.6092 16.9482 -6.97283 2.50316 0.0172059
363 2 1.008 8.70766 10.3513 17.5967 1.25563 23.603 10.3417
364 1 15.9994 9.47888 11.9417 12.3206 2.00664 -0.435717 3.80052
365 2 1.008 8.61503 12.373 12.4023 10.9971 13.5555 -2.40455
366 2 1.008 9.36163 10.9405 12.3582 -11.2553 -4.90343 -6.54504
367 1 15.9994 10.5272 12.9077 9.86187 3.50315 2.34528 2.1236
368 2 1.008 10.5796 13.8662 10.0003 0.738338 6.91398 14.0493
369 2 1.008 9.91671 12.5875 10.5814 27.7673 5.56735 -2.47719
370 1 15.9994 10.068 8.25838 10.1733 1.80473 1.64929 -5.58147
371 2 1.008 3.79066 0.285316 12.1634 -10.645 -3.78062 -0.0619475
372 2 1.008 10.7857 14.0717 14.3481 1.4418 15.5818 -8.15019
373 1 15.9994 14.4455 8.19133 12.586 1.28115 0.526956 -3.39884
374 2 1.008 13.7449 12.3874 16.0666 -6.4277 -2.89149 0.725578
375 2 1.008 13.7652 12.4601 0.284871 -2.74938 11.6968 -20.7072
376 1 15.9994 14.396 8.2258 16.6737 -3.65992 -0.655566 0.675866
377 2 1.008 14.8011 13.5711 0.344191 -19.9715 17.4691 6.95603
378 2 1.008 6.09565 12.052 0.163905 12.3259 5.20004 -11.692
379 1 15.9994 14.3531 12.9766 17.8251 -1.73248 -3.67891 -1.6881
380 2 1.008 13.2264 13.4247 6.16653 -18.6477 -17.3371 -1.26293
381 2 1.008 13.822 14.3398 3.35093 18.3216 -24.159 -17.0929
382 1 15.9994 8.98006 9.51676 17.2151 0.592827 0.678538 1.69321
383 2 1.008 3.15032 13.6813 10.1925 3.52284 -0.818367 -3.63924
384 2 1.008 6.36806 13.8159 3.70508 -11.5154 -0.647798 -18.4532
