ITEM: TIMESTEP
80
ITEM: NUMBER OF ATOMS
384
ITEM: BOX BOUNDS xy xz yz pp pp pp
0.0000000000000000e+00 1.5645677531129000e+01 0.0000000000000000e+00
0.0000000000000000e+00 1.4707145294364000e+01 0.0000000000000000e+00
0.0000000000000000e+00 1.8073037030847999e+01 0.0000000000000000e+00
ITEM: ATOMS id type mass x y z
1 1 15.9994 1.33015 1.77106 3.34996
2 2 1.008 1.26999 2.74697 3.23942
3 2 1.008 0.394146 1.43871 3.30507
4 1 15.9994 5.28828 4.57986 1.14007
5 2 1.008 5.73926 4.94745 1.93618
6 2 1.008 5.80078 4.87261 0.355711
7 1 15.9994 6.51684 5.52345 3.36298
8 2 1.008 6.06825 5.27826 4.19575
9 2 1.008 6.47223 6.50534 3.30855
10 1 15.9994 5.24854 4.54668 5.6522
11 2 1.008 4.33073 4.93587 5.65215
12 2 1.008 5.74743 4.86191 6.43647
13 1 15.9994 2.60434 0.880133 5.57088
14 2 1.008 2.21441 1.15574 4.70194
15 2 1.008 3.54764 1.22108 5.56747
16 1 15.9994 2.62461 5.47545 5.62403
17 2 1.008 2.56893 6.46154 5.63297
18 2 1.008 2.14159 5.18674 6.43496
19 1 15.9994 5.25828 1.79805 1.13626
20 2 1.008 5.23617 2.78957 1.14642
21 2 1.008 5.66159 1.50245 1.98441
22 1 15.9994 5.25073 1.78567 5.63051
23 2 1.008 5.70546 1.48378 6.45175
24 2 1.008 5.25976 2.76356 5.63134
25 1 15.9994 1.36989 4.54861 7.90342
26 2 1.008 1.36636 3.56041 7.89015
27 2 1.008 1.73732 4.8653 8.76862
28 1 15.9994 1.3468 4.51223 3.35751
29 2 1.008 1.83888 4.81929 2.57223
30 2 1.008 1.70997 4.91513 4.18379
31 1 15.9994 2.64436 5.42453 1.14262
32 2 1.008 2.57799 6.40862 1.10476
33 2 1.008 3.60963 5.2554 0.96157
34 1 15.9994 2.64473 0.882671 1.09271
35 2 1.008 2.16579 1.19916 1.88826
36 2 1.008 3.54323 1.29964 1.0776
37 1 15.9994 6.55055 0.828693 3.39203
38 2 1.008 6.14325 1.12764 4.23567
39 2 1.008 8.18846 1.53338 3.34119
40 1 15.9994 6.50331 0.827038 7.8721
41 2 1.008 6.00398 1.21667 8.63637
42 2 1.008 8.22751 1.34083 7.9102
43 1 15.9994 6.55923 5.5192 7.90285
44 2 1.008 7.48733 5.20494 7.83761
45 2 1.008 6.60183 6.50155 7.97004
46 1 15.9994 1.30709 1.72248 7.8393
47 2 1.008 1.7126 1.44497 6.98899
48 2 1.008 0.397045 1.36027 7.9485
49 1 15.9994 9.15089 1.8092 3.30579
50 2 1.008 9.06154 2.78652 3.29729
51 2 1.008 9.91608 1.15494 1.89622
52 1 15.9994 13.0634 4.53263 1.05571
53 2 1.008 13.0932 3.55251 1.10468
54 2 1.008 13.4907 4.8503 0.226517
55 1 15.9994 14.3922 5.4446 3.32829
56 2 1.008 15.32 5.05987 3.3181
57 2 1.008 13.9222 5.02901 2.55791
58 1 15.9994 13.0679 4.57404 5.61116
59 2 1.008 13.4153 4.88638 4.73921
60 2 1.008 12.1188 4.8677 5.67223
61 1 15.9994 10.4628 0.912807 5.55446
62 2 1.008 9.98358 1.26055 4.776
63 2 1.008 11.4063 1.19487 5.58496
64 1 15.9994 10.4215 5.45222 5.60409
65 2 1.008 9.98522 5.1971 4.73623
66 2 1.008 10.4314 6.43699 5.64877
67 1 15.9994 13.08 1.75596 1.11378
68 2 1.008 12.1685 1.35569 1.10616
69 2 1.008 13.5334 1.3267 1.89459
70 1 15.9994 13.0629 1.79249 5.65286
71 2 1.008 13.5107 1.42128 6.4516
72 2 1.008 13.1062 2.76225 5.7827
73 1 15.9994 9.14502 4.49218 7.83301
74 2 1.008 9.07438 3.52185 7.7535
75 2 1.008 9.69107 4.74817 7.02551
76 1 15.9994 9.13348 4.57267 3.31915
77 2 1.008 8.23844 4.95201 3.22659
78 2 1.008 9.64987 4.84812 2.50935
79 1 15.9994 10.4244 5.40713 1.04745
80 2 1.008 10.0687 5.08839 0.192584
81 2 1.008 11.345 5.08107 1.10288
82 1 15.9994 10.4308 0.884617 1.09415
83 2 1.008 10.0202 1.2179 0.266849
84 2 1.008 13.878 1.11596 4.2262
85 1 15.9994 14.3538 0.840268 3.41383
86 2 1.008 13.8313 1.13865 8.67666
87 2 1.008 13.9248 5.17218 7.07214
88 1 15.9994 14.362 0.843054 7.90137
89 2 1.008 13.0341 2.8139 10.1098
90 2 1.008 12.1028 1.6043 10.0538
91 1 15.9994 14.4068 5.48075 7.86427
92 2 1.008 15.3327 5.12705 7.80694
93 2 1.008 14.2302 7.24513 7.82714
94 1 15.9994 9.14073 1.72046 7.85478
95 2 1.008 9.54756 1.42984 7.00448
96 2 1.008 9.93292 1.12966 9.30149
97 1 15.9994 1.35221 9.1322 3.40694
98 2 1.008 1.80047 8.73207 4.18383
99 2 1.008 1.36559 10.1082 3.35082
100 1 15.9994 5.23802 11.8789 1.11825
101 2 1.008 5.13711 10.8937 0.993951
102 2 1.008 4.29548 12.1548 1.20221
103 1 15.9994 6.55787 12.7986 3.33952
104 2 1.008 7.48793 12.4685 3.30775
105 2 1.008 6.05094 12.381 2.60742
106 1 15.9994 5.24433 11.8918 5.62669
107 2 1.008 5.74072 12.1608 6.4398
108 2 1.008 5.72069 12.3038 4.86141
109 1 15.9994 2.63317 8.23529 5.6176
110 2 1.008 3.56788 8.52115 5.68616
111 2 1.008 2.23024 8.58079 6.43813
112 1 15.9994 2.6304 12.8035 5.63482
113 2 1.008 2.64831 13.7819 5.64236
114 2 1.008 3.5689 12.5222 5.75483
115 1 15.9994 5.21472 9.11071 1.10322
116 2 1.008 4.2785 8.78339 1.06304
117 2 1.008 5.61313 8.78339 0.256304
118 1 15.9994 5.2402 9.14982 5.62428
119 2 1.008 5.66541 8.9228 4.75571
120 2 1.008 5.2042 10.1372 5.67418
121 1 15.9994 1.29697 11.8778 7.87732
122 2 1.008 1.3421 10.8995 7.79961
123 2 1.008 1.73727 12.2675 7.09803
124 1 15.9994 1.34269 11.908 3.36797
125 2 1.008 0.432386 12.279 3.37307
126 2 1.008 1.75819 12.2952 4.16761
127 1 15.9994 2.61611 12.8117 1.07232
128 2 1.008 2.55073 13.7876 1.13649
129 2 1.008 2.12617 12.5309 1.89049
130 1 15.9994 2.60803 8.21396 1.0888
131 2 1.008 2.10667 8.56279 0.332397
132 2 1.008 2.20375 8.46647 1.94457
133 1 15.9994 6.54576 8.25713 3.34186
134 2 1.008 7.46756 8.60861 3.2888
135 2 1.008 6.1087 8.59395 2.53063
136 1 15.9994 6.52949 8.28356 7.8637
137 2 1.008 6.06942 8.6525 7.08535
138 2 1.008 7.51726 8.44798 7.75861
139 1 15.9994 6.57928 12.7875 7.92119
140 2 1.008 6.1398 12.574 8.76649
141 2 1.008 7.50413 12.4486 7.98032
142 1 15.9994 1.32237 9.09095 7.88531
143 2 1.008 0.413493 8.73787 7.89965
144 2 1.008 1.7665 8.70331 8.68352
145 1 15.9994 9.14376 9.12616 3.35018
146 2 1.008 9.56889 8.70885 2.56189
147 2 1.008 9.58379 8.83314 4.17447
148 1 15.9994 13.0528 11.8461 1.08753
149 2 1.008 13.0601 10.874 1.27624
150 2 1.008 12.0984 12.0706 1.03052
151 1 15.9994 14.3914 12.7603 3.36797
152 2 1.008 13.8812 12.4547 4.14036
153 2 1.008 13.9279 12.3978 2.58251
154 1 15.9994 13.0399 11.8875 5.61477
155 2 1.008 12.12 12.2584 5.70004
156 2 1.008 13.4665 12.2123 6.43402
157 1 15.9994 10.4395 8.23943 5.64074
158 2 1.008 11.3962 8.48364 5.57313
159 2 1.008 9.9789 8.5215 6.47592
160 1 15.9994 10.4539 12.8385 5.60471
161 2 1.008 10.0489 12.5635 4.74302
162 2 1.008 10.4607 13.8211 5.59745
163 1 15.9994 13.0379 9.06813 1.09194
164 2 1.008 13.5315 8.83794 0.269512
165 2 1.008 13.5067 8.69692 1.87346
166 1 15.9994 13.0503 9.14719 5.60396
167 2 1.008 13.5345 8.89695 4.78114
168 2 1.008 13.1503 10.1165 5.72026
169 1 15.9994 9.18027 11.8978 7.88466
170 2 1.008 9.67247 12.197 7.06838
171 2 1.008 9.67369 12.1915 8.69006
172 1 15.9994 9.13956 11.8693 3.33658
173 2 1.008 9.16896 10.856 3.3299
174 2 1.008 9.58271 12.1643 2.51261
175 1 15.9994 10.4537 12.7871 1.06525
176 2 1.008 9.95925 12.4191 0.291167
177 2 1.008 10.4765 13.7681 0.998929
178 1 15.9994 10.4467 8.18205 1.12511
179 2 1.008 10.495 7.18066 1.20084
180 2 1.008 11.3784 8.49914 1.18602
181 1 15.9994 14.3495 8.19837 3.36488
182 2 1.008 14.3958 7.20244 3.35643
183 2 1.008 15.2523 8.56003 3.43547
184 1 15.9994 14.3151 8.21751 7.89834
185 2 1.008 14.0271 8.56864 7.00926
186 2 1.008 13.587 8.82166 9.38498
187 1 15.9994 14.3358 12.8129 7.9261
188 2 1.008 13.9591 12.3544 8.71825
189 2 1.008 15.2353 12.4091 7.86598
190 1 15.9994 9.12508 9.1405 7.90407
191 2 1.008 9.19352 10.1123 8.05257
192 2 1.008 9.55614 8.82679 8.73848
193 1 15.9994 1.33058 1.74469 12.3999
194 2 1.008 1.73385 1.45705 11.5366
195 2 1.008 0.385466 1.46328 12.306
196 1 15.9994 5.26947 4.54798 10.151
197 2 1.008 5.70489 4.85968 10.9772
198 2 1.008 5.7774 4.90228 9.38218
199 1 15.9994 6.55971 5.50331 12.3836
200 2 1.008 6.11469 5.22416 13.2236
201 2 1.008 6.57394 6.48333 12.3905
202 1 15.9994 5.22389 4.51356 14.6471
203 2 1.008 5.12687 3.53254 14.6342
204 2 1.008 4.3192 4.86385 14.7645
205 1 15.9994 2.64345 0.862178 14.6593
206 2 1.008 2.1432 1.13471 15.4843
207 2 1.008 2.11598 1.29684 13.9512
208 1 15.9994 2.65128 5.42975 14.7152
209 2 1.008 2.55963 6.41513 14.7174
210 2 1.008 2.10459 5.1278 15.4842
211 1 15.9994 5.23948 1.78196 10.1645
212 2 1.008 4.28642 1.51816 10.1517
213 2 1.008 5.29419 2.76274 10.1364
214 1 15.9994 5.24513 1.74387 14.6799
215 2 1.008 5.77802 1.43369 15.4447
216 2 1.008 4.3173 1.42588 14.6095
217 1 15.9994 1.34504 4.51998 16.9511
218 2 1.008 1.3285 3.54312 17.002
219 2 1.008 1.83448 4.87131 17.7393
220 1 15.9994 1.3792 4.50368 12.4178
221 2 1.008 1.36773 3.528 12.3372
222 2 1.008 1.93426 4.93916 13.118
223 1 15.9994 2.64057 5.45103 10.1241
224 2 1.008 2.20702 5.18903 10.961
225 2 1.008 3.61081 5.26528 10.1515
226 1 15.9994 2.64348 0.862095 10.1026
227 2 1.008 2.15522 1.17266 9.31003
228 2 1.008 6.08771 1.30121 11.6307
229 1 15.9994 6.5645 0.882541 12.3925
230 2 1.008 6.13582 1.21885 13.2077
231 2 1.008 8.24053 1.3885 12.3594
232 1 15.9994 6.58144 0.826587 16.9161
233 2 1.008 6.2972 1.20811 17.7876
234 2 1.008 8.21665 1.38129 16.8611
235 1 15.9994 6.58749 5.43826 16.91
236 2 1.008 6.08707 5.02138 16.1622
237 2 1.008 7.51389 5.13039 16.9185
238 1 15.9994 1.34097 1.75986 16.9254
239 2 1.008 0.41649 1.42873 16.8429
240 2 1.008 1.78908 1.31097 17.6892
241 1 15.9994 9.1319 1.81341 12.4043
242 2 1.008 9.13527 2.79641 12.4189
243 2 1.008 9.84338 1.20394 10.8626
244 1 15.9994 13.0592 4.58927 10.0917
245 2 1.008 13.5293 4.95524 10.8748
246 2 1.008 13.5394 4.94523 9.29318
247 1 15.9994 14.4071 5.42617 12.3994
248 2 1.008 15.3484 5.12647 12.4396
249 2 1.008 13.912 5.00785 13.1524
250 1 15.9994 13.0946 4.51391 14.6529
251 2 1.008 13.4965 4.86914 15.4901
252 2 1.008 13.1551 3.5286 14.6181
253 1 15.9994 10.4787 0.802668 14.6309
254 2 1.008 10.0754 1.1591 13.8016
255 2 1.008 9.55171 1.31779 16.0661
256 1 15.9994 10.497 5.427 14.6237
257 2 1.008 9.99825 5.10171 13.8332
258 2 1.008 11.4385 5.13495 14.515
259 1 15.9994 13.06 1.82413 10.146
260 2 1.008 13.7682 1.30337 11.6763
261 2 1.008 13.9856 1.28155 13.1751
262 1 15.9994 13.1069 1.73642 14.6826
263 2 1.008 13.5705 1.338 15.4665
264 2 1.008 12.163 1.4532 14.71
265 1 15.9994 9.18422 4.52592 16.9044
266 2 1.008 9.10955 3.55166 16.7308
267 2 1.008 9.59249 4.8796 16.0611
268 1 15.9994 9.1867 4.55878 12.3943
269 2 1.008 8.22618 4.85593 12.3661
270 2 1.008 9.64422 4.79478 11.5398
271 1 15.9994 10.4432 5.42158 10.1263
272 2 1.008 10.0859 5.09037 9.2685
273 2 1.008 11.3831 5.13109 10.1998
274 1 15.9994 10.4318 0.905018 10.1309
275 2 1.008 10.4374 7.20351 10.1808
276 2 1.008 11.396 8.46829 10.1717
277 1 15.9994 14.3686 0.883013 12.363
278 2 1.008 13.8906 1.13952 17.7194
279 2 1.008 15.3714 5.17671 16.8688
280 1 15.9994 14.3749 0.816757 16.9223
281 2 1.008 14.4025 6.44045 16.9634
282 2 1.008 13.8272 8.58372 16.1229
283 1 15.9994 14.4219 5.4689 16.9004
284 2 1.008 15.2701 8.55743 16.9054
285 2 1.008 13.6672 8.88128 13.9001
286 1 15.9994 9.13439 1.74671 16.8565
287 2 1.008 6.55221 7.21212 16.927
288 2 1.008 10.5234 7.19527 14.7073
289 1 15.9994 1.3622 9.11882 12.3951
290 2 1.008 1.87017 8.84907 11.5906
291 2 1.008 1.28459 10.1048 12.3093
292 1 15.9994 5.25003 11.8523 10.1359
293 2 1.008 5.58537 12.2713 10.9732
294 2 1.008 4.31495 12.1434 10.1903
295 1 15.9994 6.52609 12.7953 12.4025
296 2 1.008 6.11521 12.5902 13.2849
297 2 1.008 6.52534 13.7738 12.3369
298 1 15.9994 5.21253 11.8876 14.656
299 2 1.008 5.20439 10.9136 14.682
300 2 1.008 4.26527 12.1887 14.7319
301 1 15.9994 2.59099 8.1852 14.6421
302 2 1.008 2.16562 8.57818 13.8386
303 2 1.008 3.53584 8.47841 14.6226
304 1 15.9994 2.62388 12.8135 14.6812
305 2 1.008 2.61127 13.8011 14.7868
306 2 1.008 2.05604 12.4938 15.4149
307 1 15.9994 5.28963 9.11 10.1527
308 2 1.008 5.30367 10.0905 10.053
309 2 1.008 5.63732 8.8041 9.26404
310 1 15.9994 5.21019 9.11498 14.6419
311 2 1.008 5.69227 8.72346 15.4117
312 2 1.008 5.65657 8.7765 13.8373
313 1 15.9994 1.3458 11.9433 16.9096
314 2 1.008 1.72262 12.3135 17.7406
315 2 1.008 0.411154 12.2584 16.9499
316 1 15.9994 1.3285 11.9072 12.3935
317 2 1.008 0.464839 12.3974 12.3842
318 2 1.008 1.85162 12.2356 13.1569
319 1 15.9994 2.65193 12.8057 10.1155
320 2 1.008 2.06865 12.5149 10.884
321 2 1.008 2.08663 12.5609 9.32706
322 1 15.9994 2.62912 8.1801 10.1163
323 2 1.008 2.63347 7.17939 10.1291
324 2 1.008 3.59137 8.40478 10.1141
325 1 15.9994 6.52421 8.23714 12.4144
326 2 1.008 7.42257 8.60877 12.421
327 2 1.008 6.01213 8.52238 11.6004
328 1 15.9994 6.55168 8.19515 16.8917
329 2 1.008 7.49717 8.45861 16.9092
330 2 1.008 9.57097 8.78896 17.7571
331 1 15.9994 6.53548 12.7944 16.9327
332 2 1.008 6.04511 12.435 16.1556
333 2 1.008 6.07981 12.4305 17.7164
334 1 15.9994 1.30365 9.15121 16.917
335 2 1.008 1.76216 8.85485 16.1021
336 2 1.008 1.41345 10.1302 16.8901
337 1 15.9994 9.188 9.13159 12.408
338 2 1.008 9.73741 8.7417 11.6911
339 2 1.008 9.53584 8.78456 13.25
340 1 15.9994 13.0413 11.8746 10.1778
341 2 1.008 13.0043 10.8995 10.208
342 2 1.008 12.1194 12.2145 10.1884
343 1 15.9994 14.3654 12.8693 12.3874
344 2 1.008 13.9268 12.4602 11.596
345 2 1.008 14.381 13.857 12.3234
346 1 15.9994 13.0463 11.9452 14.6422
347 2 1.008 13.4083 12.354 13.8235
348 2 1.008 12.0947 12.1966 14.5557
349 1 15.9994 10.472 8.17738 14.6772
350 2 1.008 11.379 8.52989 14.656
351 2 1.008 9.6885 8.79951 16.1465
352 1 15.9994 10.4321 12.8181 14.6641
353 2 1.008 9.98551 12.4789 13.8567
354 2 1.008 9.97671 12.3946 15.4186
355 1 15.9994 13.0369 9.11072 10.1688
356 2 1.008 13.4854 8.69684 10.9489
357 2 1.008 15.3566 8.50083 12.3569
358 1 15.9994 13.0539 9.16285 14.6347
359 2 1.008 13.2022 10.1435 14.7052
360 2 1.008 14.3893 7.22161 12.3881
361 1 15.9994 9.12113 11.902 16.9054
362 2 1.008 8.16884 12.1134 17.0586
363 2 1.008 9.14262 10.9197 16.959
364 1 15.9994 9.11894 11.8881 12.3955
365 2 1.008 8.18673 12.2202 12.3591
366 2 1.008 9.02106 10.9069 12.3117
367 1 15.9994 10.4663 12.8178 10.1748
368 2 1.008 10.4063 13.7974 10.2646
369 2 1.008 9.86952 12.4808 10.8817
370 1 15.9994 10.4505 8.18499 10.1931
371 2 1.008 6.55735 14.5502 7.93722
372 2 1.008 10.4076 14.5352 14.5444
373 1 15.9994 14.4177 8.19754 12.3986
374 2 1.008 13.8341 12.372 16.1881
375 2 1.008 13.8718 12.5393 17.7812
376 1 15.9994 14.3425 8.23502 16.8881
377 2 1.008 14.3564 14.5462 16.9501
378 2 1.008 6.57859 14.5551 17.1243
379 1 15.9994 14.3626 12.7739 16.9215
380 2 1.008 14.3413 14.5656 7.95869
381 2 1.008 14.337 14.5524 3.3761
382 1 15.9994 9.1667 9.13558 16.9218
383 2 1.008 2.64355 14.5879 10.0876
384 2 1.008 6.57396 14.5578 3.44691
ITEM: TIMESTEP
90
ITEM: NUMBER OF ATOMS
384
ITEM: BOX BOUNDS xy xz yz pp pp pp
0.0000000000000000e+00 1.5645677531129000e+01 0.0000000000000000e+00
0.0000000000000000e+00 1.4707145294364000e+01 0.0000000000000000e+00
0.0000000000000000e+00 1.8073037030847999e+01 0.0000000000000000e+00
ITEM: ATOMS id type mass x y z
1 1 15.9994 1.34518 1.7068 3.39084
2 2 1.008 1.36687 2.67827 3.30252
3 2 1.008 0.38561 1.41239 3.36462
4 1 15.9994 5.30891 4.57139 1.18472
5 2 1.008 5.68685 4.95548 2.01787
6 2 1.008 5.86614 4.79836 0.431022
7 1 15.9994 6.51103 5.5426 3.32301
8 2 1.008 6.09598 5.30012 4.16539
9 2 1.008 6.53213 6.52785 3.28221
10 1 15.9994 5.28467 4.54728 5.67877
11 2 1.008 4.37093 4.97466 5.75296
12 2 1.008 5.76387 4.96236 6.43364
13 1 15.9994 2.5916 0.895509 5.57239
14 2 1.008 2.1715 1.16946 4.7288
15 2 1.008 3.52872 1.25277 5.56751
16 1 15.9994 2.62982 5.49817 5.60792
17 2 1.008 2.57576 6.48846 5.60133
18 2 1.008 2.20098 5.20498 6.41454
19 1 15.9994 5.22639 1.78871 1.18333
20 2 1.008 5.18079 2.76563 1.2248
21 2 1.008 5.54035 1.51591 2.08591
22 1 15.9994 5.26074 1.78443 5.65576
23 2 1.008 5.67059 1.47635 6.47341
24 2 1.008 5.2535 2.75664 5.67202
25 1 15.9994 1.42104 4.59722 7.90518
26 2 1.008 1.39993 3.60339 7.91911
27 2 1.008 1.8187 4.85058 8.7939
28 1 15.9994 1.35945 4.43147 3.35805
29 2 1.008 1.92562 4.78767 2.64706
30 2 1.008 1.76012 4.82853 4.18869
31 1 15.9994 2.61366 5.40315 1.20087
32 2 1.008 2.41194 6.37345 1.15727
33 2 1.008 3.55548 5.25735 0.946717
34 1 15.9994 2.62082 0.892615 1.07848
35 2 1.008 2.18606 1.238 1.88178
36 2 1.008 3.52288 1.30921 1.0413
37 1 15.9994 6.58478 0.747173 3.42311
38 2 1.008 6.20973 1.04466 4.28024
39 2 1.008 8.24927 1.43099 3.33386
40 1 15.9994 6.46468 0.82399 7.83576
41 2 1.008 5.97866 1.08963 8.6503
42 2 1.008 8.22212 1.33045 7.88926
43 1 15.9994 6.55728 5.58591 7.95034
44 2 1.008 7.47625 5.26577 7.86485
45 2 1.008 6.57279 6.56412 7.939
46 1 15.9994 1.29338 1.67327 7.82543
47 2 1.008 1.60709 1.35991 6.95315
48 2 1.008 0.375969 1.29622 7.90613
49 1 15.9994 9.17182 1.81651 3.24783
50 2 1.008 9.11979 2.78706 3.22393
51 2 1.008 9.81936 1.11184 1.87158
52 1 15.9994 13.0536 4.57158 1.04708
53 2 1.008 13.0628 3.59173 1.04741
54 2 1.008 13.569 4.78992 0.224237
55 1 15.9994 14.4516 5.44942 3.32719
56 2 1.008 15.3386 4.99601 3.34158
57 2 1.008 13.9501 5.03637 2.5811
58 1 15.9994 13.0831 4.63836 5.65078
59 2 1.008 13.3873 4.94773 4.7709
60 2 1.008 12.1151 4.86932 5.70323
61 1 15.9994 10.4839 0.96877 5.52825
62 2 1.008 10.0899 1.31754 4.70839
63 2 1.008 11.4187 1.29475 5.44583
64 1 15.9994 10.3804 5.45459 5.64146
65 2 1.008 9.94815 5.24989 4.75546
66 2 1.008 10.3677 6.44 5.70854
67 1 15.9994 13.0782 1.76292 1.13683
68 2 1.008 12.1579 1.41626 1.13092
69 2 1.008 13.576 1.37245 1.9238
70 1 15.9994 13.0303 1.82162 5.7179
71 2 1.008 13.5139 1.37692 6.47148
72 2 1.008 13.0961 2.78866 5.85529
73 1 15.9994 9.12762 4.45147 7.81573
74 2 1.008 9.00175 3.50354 7.76022
75 2 1.008 9.61225 4.77811 6.99969
76 1 15.9994 9.15835 4.56695 3.29278
77 2 1.008 8.28882 4.98088 3.15745
78 2 1.008 9.68374 4.75915 2.44351
79 1 15.9994 10.3954 5.38723 1.02797
80 2 1.008 10.1159 5.04378 0.151563
81 2 1.008 11.3175 5.11149 1.09943
82 1 15.9994 10.3893 0.864837 1.09999
83 2 1.008 9.88093 1.23936 0.357889
84 2 1.008 13.8204 1.16364 4.26456
85 1 15.9994 14.3274 0.852529 3.48962
86 2 1.008 13.8721 1.18444 8.66372
87 2 1.008 13.9943 5.24027 7.0846
88 1 15.9994 14.3738 0.810627 7.90817
89 2 1.008 13.1331 2.82118 10.0336
90 2 1.008 12.1198 1.55894 10.0738
91 1 15.9994 14.4522 5.54414 7.87308
92 2 1.008 15.3813 5.1826 7.7803
93 2 1.008 14.2348 7.27129 7.86019
94 1 15.9994 9.16229 1.69293 7.85057
95 2 1.008 9.49631 1.42371 6.95859
96 2 1.008 9.93935 1.02817 9.25393
97 1 15.9994 1.37099 9.14833 3.45823
98 2 1.008 1.86184 8.90721 4.28544
99 2 1.008 1.50746 10.1044 3.54185
100 1 15.9994 5.25564 11.9022 1.13017
101 2 1.008 5.24227 10.9114 0.962415
102 2 1.008 4.34535 12.2601 1.18605
103 1 15.9994 6.53587 12.7729 3.32538
104 2 1.008 7.45472 12.4308 3.29595
105 2 1.008 6.09951 12.3541 2.57704
106 1 15.9994 5.22376 11.834 5.64828
107 2 1.008 5.69065 12.1414 6.49785
108 2 1.008 5.73002 12.2255 4.88027
109 1 15.9994 2.63161 8.23587 5.61225
110 2 1.008 3.57081 8.46454 5.57704
111 2 1.008 2.21662 8.56756 6.4339
112 1 15.9994 2.62148 12.7974 5.66348
113 2 1.008 2.64233 13.7728 5.7008
114 2 1.008 3.54566 12.4842 5.81549
115 1 15.9994 5.19885 9.11362 1.1395
116 2 1.008 4.24877 8.79456 1.12439
117 2 1.008 5.65876 8.76577 0.319289
118 1 15.9994 5.22728 9.13507 5.62731
119 2 1.008 5.65313 8.95215 4.73741
120 2 1.008 5.12931 10.1222 5.62364
121 1 15.9994 1.24008 11.9008 7.87859
122 2 1.008 1.36797 10.9133 7.7997
123 2 1.008 1.64917 12.247 7.05823
124 1 15.9994 1.35962 11.9437 3.35793
125 2 1.008 0.433621 12.2781 3.36508
126 2 1.008 1.80358 12.3441 4.10402
127 1 15.9994 2.59307 12.8173 1.00544
128 2 1.008 2.62664 13.7882 0.978149
129 2 1.008 2.19169 12.4909 1.85637
130 1 15.9994 2.60667 8.23626 1.1068
131 2 1.008 2.02505 8.62646 0.427299
132 2 1.008 2.22387 8.56836 1.93515
133 1 15.9994 6.56926 8.23603 3.29611
134 2 1.008 7.49353 8.61301 3.3213
135 2 1.008 6.11145 8.56048 2.50807
136 1 15.9994 6.45152 8.35762 7.84595
137 2 1.008 6.02937 8.70198 7.02684
138 2 1.008 7.43289 8.53478 7.65301
139 1 15.9994 6.58213 12.8101 7.9676
140 2 1.008 6.14341 12.6157 8.822
141 2 1.008 7.47984 12.4408 8.01571
142 1 15.9994 1.33542 9.03811 7.87065
143 2 1.008 0.41947 8.70781 7.88518
144 2 1.008 1.78628 8.72597 8.69065
145 1 15.9994 9.12087 9.17121 3.32083
146 2 1.008 9.60146 8.67462 2.60519
147 2 1.008 9.55402 8.851 4.13083
148 1 15.9994 13.0693 11.8458 1.03305
149 2 1.008 13.1869 10.8963 1.27712
150 2 1.008 12.1244 12.0867 1.04269
151 1 15.9994 14.4587 12.7366 3.35697
152 2 1.008 13.9231 12.465 4.13027
153 2 1.008 13.9844 12.3771 2.58053
154 1 15.9994 13.0291 11.8675 5.56342
155 2 1.008 12.0826 12.1832 5.58441
156 2 1.008 13.4865 12.1984 6.35856
157 1 15.9994 10.3958 8.26479 5.61294
158 2 1.008 11.3401 8.59933 5.64857
159 2 1.008 10.1022 8.64533 6.49407
160 1 15.9994 10.5017 12.8575 5.57501
161 2 1.008 10.116 12.6588 4.70029
162 2 1.008 10.4586 13.8328 5.66434
163 1 15.9994 13.0292 9.06332 1.07767
164 2 1.008 13.5012 8.80163 0.231807
165 2 1.008 13.5576 8.59888 1.77179
166 1 15.9994 13.0502 9.18066 5.60426
167 2 1.008 13.4951 8.9447 4.74762
168 2 1.008 13.064 10.1402 5.6749
169 1 15.9994 9.13794 11.852 7.84462
170 2 1.008 9.66208 12.1235 7.01874
171 2 1.008 9.66991 12.2406 8.59888
172 1 15.9994 9.08646 11.8641 3.33944
173 2 1.008 9.16899 10.8376 3.28892
174 2 1.008 9.46768 12.1794 2.4967
175 1 15.9994 10.4686 12.7404 1.04208
176 2 1.008 10.0338 12.386 0.219871
177 2 1.008 10.4933 13.6995 0.854619
178 1 15.9994 10.4261 8.17053 1.16587
179 2 1.008 10.4592 7.15695 1.19133
180 2 1.008 11.3434 8.53306 1.16107
181 1 15.9994 14.3046 8.19613 3.3892
182 2 1.008 14.4233 7.2283 3.39443
183 2 1.008 15.2164 8.51336 3.42661
184 1 15.9994 14.2952 8.2428 7.91271
185 2 1.008 14.0196 8.59193 7.02499
186 2 1.008 13.5805 8.92056 9.38086
187 1 15.9994 14.3076 12.8326 7.92801
188 2 1.008 13.9066 12.4429 8.739
189 2 1.008 15.2152 12.4623 7.77274
190 1 15.9994 9.08635 9.11872 7.90492
191 2 1.008 9.08462 10.0897 7.97364
192 2 1.008 9.48293 8.68071 8.68036
193 1 15.9994 1.29758 1.75976 12.4135
194 2 1.008 1.77606 1.48186 11.5816
195 2 1.008 0.339543 1.50737 12.3517
196 1 15.9994 5.25319 4.55401 10.1672
197 2 1.008 5.68749 4.85142 10.9789
198 2 1.008 5.83691 4.88231 9.46375
199 1 15.9994 6.5941 5.5656 12.3239
200 2 1.008 6.21083 5.29154 13.1953
201 2 1.008 6.65996 6.5318 12.3444
202 1 15.9994 5.19742 4.51863 14.6369
203 2 1.008 5.10297 3.55344 14.6686
204 2 1.008 4.29989 4.89258 14.7589
205 1 15.9994 2.61973 0.82332 14.6656
206 2 1.008 2.26374 1.11581 15.5325
207 2 1.008 2.13521 1.27127 13.9404
208 1 15.9994 2.68161 5.41282 14.7429
209 2 1.008 2.52504 6.39588 14.7153
210 2 1.008 2.10094 4.97873 15.42
211 1 15.9994 5.24359 1.82308 10.1825
212 2 1.008 4.28557 1.59591 10.191
213 2 1.008 5.26094 2.79721 10.1373
214 1 15.9994 5.26068 1.73368 14.6861
215 2 1.008 5.63916 1.27284 15.48
216 2 1.008 4.36021 1.29273 14.7566
217 1 15.9994 1.3656 4.52993 16.9583
218 2 1.008 1.32699 3.56156 17.078
219 2 1.008 1.84893 4.86411 17.7412
220 1 15.9994 1.39965 4.52581 12.3836
221 2 1.008 1.49296 3.55333 12.4604
222 2 1.008 2.04109 4.72589 13.0879
223 1 15.9994 2.63587 5.53169 10.0729
224 2 1.008 2.2666 5.23636 10.9302
225 2 1.008 3.56864 5.22319 10.103
226 1 15.9994 2.67134 0.891177 10.0897
227 2 1.008 2.22063 1.13449 9.25552
228 2 1.008 6.07945 1.32343 11.6587
229 1 15.9994 6.59027 0.879555 12.3841
230 2 1.008 6.19741 1.21286 13.2064
231 2 1.008 8.19357 1.48669 12.4101
232 1 15.9994 6.63539 0.770975 16.9292
233 2 1.008 6.42832 1.30184 17.7533
234 2 1.008 8.16701 1.39441 16.8812
235 1 15.9994 6.56467 5.42557 16.9232
236 2 1.008 6.18299 4.93473 16.1632
237 2 1.008 7.47482 5.09461 16.9511
238 1 15.9994 1.40469 1.76947 16.9466
239 2 1.008 0.460203 1.49822 16.8936
240 2 1.008 1.73308 1.28162 17.7488
241 1 15.9994 9.13005 1.81675 12.402
242 2 1.008 8.97676 2.77978 12.4227
243 2 1.008 9.88862 1.29013 10.8491
244 1 15.9994 13.0423 4.60669 10.0303
245 2 1.008 13.5202 4.95234 10.8273
246 2 1.008 13.482 4.94868 9.22791
247 1 15.9994 14.3876 5.42344 12.3962
248 2 1.008 15.3421 5.10596 12.5027
249 2 1.008 13.9313 5.04796 13.1995
250 1 15.9994 13.0854 4.54162 14.6541
251 2 1.008 13.5123 4.8421 15.5066
252 2 1.008 13.2027 3.55356 14.7387
253 1 15.9994 10.4657 0.740261 14.6281
254 2 1.008 10.1282 1.16636 13.8299
255 2 1.008 9.54579 1.3163 16.0157
256 1 15.9994 10.4896 5.37375 14.6084
257 2 1.008 9.99379 5.10375 13.7818
258 2 1.008 11.4352 5.08467 14.5109
259 1 15.9994 13.058 1.85286 10.1529
260 2 1.008 13.7792 1.24087 11.6153
261 2 1.008 14.0236 1.13188 13.2178
262 1 15.9994 13.1509 1.72178 14.6886
263 2 1.008 13.5654 1.33337 15.4887
264 2 1.008 12.2012 1.40752 14.7536
265 1 15.9994 9.17649 4.5481 16.959
266 2 1.008 9.05442 3.57153 16.8021
267 2 1.008 9.50224 4.93293 16.1297
268 1 15.9994 9.25285 4.5335 12.4065
269 2 1.008 8.29608 4.87194 12.2269
270 2 1.008 9.71412 4.74122 11.5496
271 1 15.9994 10.4561 5.39308 10.1552
272 2 1.008 10.1191 5.0159 9.29526
273 2 1.008 11.4061 5.12336 10.1451
274 1 15.9994 10.3913 0.890865 10.1057
275 2 1.008 10.4456 7.20161 10.2061
276 2 1.008 11.4224 8.41627 10.1481
277 1 15.9994 14.3702 0.868202 12.3533
278 2 1.008 13.8998 1.12663 17.7152
279 2 1.008 15.4258 5.21662 16.9132
280 1 15.9994 14.3655 0.802688 16.9085
281 2 1.008 14.4366 6.45644 16.9798
282 2 1.008 13.8578 8.61445 16.103
283 1 15.9994 14.4842 5.48753 16.8965
284 2 1.008 15.18 8.63413 16.8547
285 2 1.008 13.6606 8.87228 13.9571
286 1 15.9994 9.08626 1.73564 16.7907
287 2 1.008 6.51184 7.16471 16.9073
288 2 1.008 10.6099 7.13485 14.7303
289 1 15.9994 1.3784 9.09222 12.4257
290 2 1.008 1.89158 8.8198 11.6297
291 2 1.008 1.1885 10.0639 12.3548
292 1 15.9994 5.23293 11.813 10.1217
293 2 1.008 5.60489 12.0829 10.9836
294 2 1.008 4.28756 12.028 10.0166
295 1 15.9994 6.54133 12.7543 12.3605
296 2 1.008 6.15539 12.6227 13.2502
297 2 1.008 6.53682 13.7144 12.2171
298 1 15.9994 5.22138 11.8701 14.655
299 2 1.008 5.25973 10.8972 14.6889
300 2 1.008 4.2524 12.1539 14.7369
301 1 15.9994 2.56386 8.13933 14.6205
302 2 1.008 2.12527 8.62359 13.8541
303 2 1.008 3.50465 8.45356 14.6441
304 1 15.9994 2.6332 12.8004 14.7111
305 2 1.008 2.66076 13.7859 14.7485
306 2 1.008 2.04857 12.4911 15.414
307 1 15.9994 5.35935 9.09235 10.1825
308 2 1.008 5.33229 10.0674 10.1326
309 2 1.008 5.7473 8.75624 9.31306
310 1 15.9994 5.1824 9.06488 14.604
311 2 1.008 5.7206 8.68371 15.3461
312 2 1.008 5.6403 8.77612 13.7912
313 1 15.9994 1.37066 11.9768 16.8771
314 2 1.008 1.8215 12.3512 17.6677
315 2 1.008 0.413489 12.2018 16.8754
316 1 15.9994 1.31362 11.9222 12.3732
317 2 1.008 0.54345 12.4997 12.4777
318 2 1.008 1.95039 12.2433 13.0492
319 1 15.9994 2.6579 12.855 10.0798
320 2 1.008 2.12079 12.4826 10.8831
321 2 1.008 2.17674 12.7165 9.24573
322 1 15.9994 2.61155 8.17755 10.0941
323 2 1.008 2.49178 7.1844 10.056
324 2 1.008 3.56425 8.43011 10.1221
325 1 15.9994 6.50397 8.24079 12.4505
326 2 1.008 7.38814 8.65277 12.3461
327 2 1.008 6.0459 8.54961 11.5912
328 1 15.9994 6.54704 8.1399 16.8659
329 2 1.008 7.48232 8.41649 16.7924
330 2 1.008 9.55067 8.76588 17.7669
331 1 15.9994 6.56327 12.7911 16.9536
332 2 1.008 6.1131 12.4112 16.1557
333 2 1.008 6.08156 12.4981 17.7363
334 1 15.9994 1.28045 9.14832 16.9503
335 2 1.008 1.75353 8.71075 16.1961
336 2 1.008 1.40542 10.1192 16.9128
337 1 15.9994 9.26622 9.17016 12.4163
338 2 1.008 9.80104 8.68756 11.7484
339 2 1.008 9.53032 8.86308 13.2974
340 1 15.9994 13.0272 11.9186 10.1816
341 2 1.008 12.9738 10.933 10.2772
342 2 1.008 12.1023 12.2437 10.2164
343 1 15.9994 14.3314 12.9129 12.3819
344 2 1.008 13.8967 12.5775 11.5631
345 2 1.008 14.3189 13.8975 12.2125
346 1 15.9994 13.0111 11.9966 14.6345
347 2 1.008 13.3963 12.3356 13.8004
348 2 1.008 12.0566 12.1285 14.7111
349 1 15.9994 10.4813 8.10673 14.68
350 2 1.008 11.3474 8.49345 14.5731
351 2 1.008 9.75713 8.76768 16.2135
352 1 15.9994 10.4371 12.8604 14.708
353 2 1.008 10.0224 12.5311 13.872
354 2 1.008 9.94971 12.393 15.4242
355 1 15.9994 13.0156 9.12526 10.1825
356 2 1.008 13.4308 8.69129 10.9774
357 2 1.008 15.3845 8.42598 12.319
358 1 15.9994 13.0408 9.2022 14.6545
359 2 1.008 13.1855 10.1735 14.7441
360 2 1.008 14.4583 7.22288 12.4809
361 1 15.9994 9.13154 11.8924 16.9094
362 2 1.008 8.18674 12.163 17.0119
363 2 1.008 9.17346 10.9108 16.9452
364 1 15.9994 9.11452 11.9385 12.381
365 2 1.008 8.20606 12.3013 12.3668
366 2 1.008 9.09897 10.9256 12.3388
367 1 15.9994 10.4257 12.7763 10.1529
368 2 1.008 10.4116 13.757 10.2257
369 2 1.008 9.88246 12.3795 10.8733
370 1 15.9994 10.4558 8.16732 10.2241
371 2 1.008 6.50233 14.5324 7.9495
372 2 1.008 10.3948 14.4843 14.5774
373 1 15.9994 14.438 8.1899 12.4292
374 2 1.008 13.8426 12.4094 16.1454
375 2 1.008 13.9611 12.5577 17.7882
376 1 15.9994 14.3069 8.20892 16.8863
377 2 1.008 14.3808 14.517 16.9384
378 2 1.008 6.64755 14.4899 17.076
379 1 15.9994 14.4004 12.7977 16.8801
380 2 1.008 14.3635 14.5285 7.95842
381 2 1.008 14.3003 14.5541 3.43949
382 1 15.9994 9.17978 9.15585 16.9118
383 2 1.008 2.7229 14.6229 10.1057
384 2 1.008 6.58274 14.4603 3.39608
