384
Lattice="15.6456775311 0 0  0.0000000000 14.7071452944 0  0.0000000000 0.0000000000 18.0730370308" Properties=species:S:1:pos:R:3 step=10
O  1.37993000  1.74920000  3.37937000
H  1.32475000  2.72773000  3.32593000
H  0.48636100  1.47073000  3.35441000
O  5.20189000  4.47215000  1.11941000
H  5.68356000  4.82550000  1.88018000
H  5.68381000  4.80440000  0.35240600
O  6.58652000  5.39112000  3.30206000
H  6.11891000  5.13553000  4.11854000
H  6.54338000  6.36465000  3.29877000
O  5.28011000  4.48905000  5.56892000
H  4.42891000  4.84261000  5.59185000
H  5.73284000  4.81567000  6.35739000
O  2.58109000  0.84330000  5.66930000
H  2.17481000  1.16093000  4.83392000
H  3.46055000  1.15993000  5.63255000
O  2.69142000  5.43772000  5.55637000
H  2.63971000  6.37323000  5.58738000
H  2.19893000  5.15008000  6.38941000
O  5.19344000  1.70761000  1.07999000
H  5.20364000  2.71361000  1.10654000
H  5.63164000  1.42737000  1.89531000
O  5.19825000  1.73279000  5.57575000
H  5.67281000  1.44605000  6.40180000
H  5.22662000  2.67691000  5.60012000
O  1.33659000  4.61918000  7.82023000
H  1.33561000  3.67283000  7.84051000
H  1.75883000  4.91032000  8.64000000
O  1.30194000  4.50456000  3.36040000
H  1.78669000  4.82734000  2.57940000
H  1.73287000  4.85719000  4.11571000
O  2.59905000  5.40792000  1.11237000
H  2.62095000  6.35320000  1.11046000
H  3.52441000  5.17710000  1.04613000
O  2.58474000  0.82077300  1.07495000
H  2.16776000  1.14560000  1.84804000
H  3.43819000  1.16085000  1.08843000
O  6.54312000  0.85406100  3.33439000
H  6.10910000  1.12356000  4.14062000
H  8.33328000  1.52088000  3.36588000
O  6.53227000  0.88052600  7.82587000
H  6.07089000  1.18480000  8.60199000
H  8.30562000  1.48671000  7.91479000
O  6.50643000  5.41974000  7.86254000
H  7.42665000  5.15190000  7.85241000
H  6.53673000  6.39178000  7.90483000
O  1.34542000  1.84179000  7.91375000
H  1.76012000  1.51828000  7.11565000
H  0.44384200  1.48057000  7.93022000
O  9.20160000  1.75544000  3.35915000
H  9.13197000  2.70463000  3.34922000
H  10.01030000  1.12020000  1.88010000
O  13.04830000  4.55629000  1.14285000
H  13.06360000  3.56482000  1.13969000
H  13.47520000  4.82804000  0.35271500
O  14.37170000  5.46401000  3.40157000
H  15.22250000  5.13814000  3.36290000
H  13.92450000  5.08082000  2.59580000
O  13.09860000  4.50416000  5.65974000
H  13.48150000  4.82868000  4.84372000
H  12.24560000  4.81586000  5.65149000
O  10.41620000  0.84822300  5.66554000
H  9.96684000  1.19405000  4.85876000
H  11.33010000  1.15850000  5.64547000
O  10.49770000  5.43554000  5.65299000
H  10.08290000  5.18533000  4.89075000
H  10.47150000  6.35964000  5.64132000
O  13.07810000  1.78951000  1.07597000
H  12.15830000  1.41505000  1.10406000
H  13.47230000  1.42739000  1.82164000
O  13.01620000  1.73665000  5.58711000
H  13.45330000  1.44421000  6.35201000
H  13.05390000  2.69473000  5.66615000
O  9.14213000  4.60578000  7.90262000
H  9.12464000  3.62990000  7.84490000
H  9.61480000  4.83617000  7.15971000
O  9.20333000  4.51712000  3.39724000
H  8.30125000  4.85096000  3.32277000
H  9.62492000  4.82159000  2.64543000
O  10.44170000  5.48659000  1.14115000
H  10.04330000  5.16674000  0.31960000
H  11.37030000  5.13330000  1.14103000
O  10.47830000  0.81688600  1.12302000
H  10.04360000  1.16334000  0.35735700
H  13.89420000  1.13408000  4.14058000
O  14.36070000  0.86508400  3.34397000
H  13.88370000  1.14246000  8.62672000
H  13.91750000  5.15689000  7.09982000
O  14.36900000  0.88062800  7.82983000
H  13.05560000  2.71089000  10.13860000
H  12.17200000  1.47454000  10.12150000
O  14.36430000  5.49351000  7.90901000
H  15.26770000  5.16434000  7.85106000
H  14.31190000  7.29666000  7.87251000
O  9.17373000  1.84622000  7.92038000
H  9.57898000  1.51998000  7.11428000
H  9.99299000  1.14335000  9.35878000
O  1.30331000  9.11454000  3.34118000
H  1.74372000  8.77990000  4.11237000
H  1.32968000  10.08590000  3.33018000
O  5.31210000  11.90230000  1.10975000
H  5.22527000  10.95680000  1.07092000
H  4.38477000  12.16650000  1.13641000
O  6.52835000  12.81380000  3.39953000
H  7.44006000  12.49600000  3.35760000
H  6.07557000  12.44000000  2.60123000
O  5.19252000  11.83050000  5.61520000
H  5.65421000  12.13810000  6.33731000
H  5.66925000  12.19980000  4.86699000
O  2.58750000  8.18953000  5.57203000
H  3.52038000  8.50821000  5.62946000
H  2.17911000  8.55582000  6.39303000
O  2.60020000  12.78250000  5.60820000
H  2.64214000  13.74970000  5.62241000
H  3.54029000  12.50650000  5.66154000
O  5.24952000  9.14089000  1.17118000
H  4.36173000  8.81789000  1.12418000
H  5.62458000  8.81693000  0.37454300
O  5.20123000  9.07768000  5.66693000
H  5.63001000  8.81999000  4.88394000
H  5.21031000  10.04670000  5.66063000
O  1.31428000  11.96450000  7.91030000
H  1.33472000  11.01700000  7.85624000
H  1.77436000  12.27760000  7.10132000
O  1.37961000  11.87460000  3.30692000
H  0.51627300  12.21680000  3.34409000
H  1.78466000  12.24560000  4.12167000
O  2.68400000  12.76590000  1.03910000
H  2.61693000  13.71830000  1.09860000
H  2.22113000  12.49940000  1.81912000
O  2.67064000  8.17385000  1.12211000
H  2.18842000  8.52664000  0.35474900
H  2.20672000  8.48808000  1.93349000
O  6.49894000  8.13976000  3.41287000
H  7.36674000  8.50103000  3.37030000
H  6.06847000  8.49554000  2.60156000
O  6.47678000  8.17806000  7.92514000
H  6.04805000  8.53213000  7.13889000
H  7.38998000  8.45022000  7.85354000
O  6.53379000  12.83840000  7.82152000
H  6.12884000  12.54490000  8.61955000
H  7.45199000  12.50750000  7.86712000
O  1.35361000  9.19868000  7.82306000
H  0.45992800  8.84521000  7.84716000
H  1.77011000  8.83610000  8.62130000
O  9.08967000  9.19515000  3.36254000
H  9.52901000  8.83473000  2.61837000
H  9.55828000  8.86563000  4.14778000
O  13.13120000  11.89560000  1.09274000
H  13.08950000  10.98110000  1.17134000
H  12.19270000  12.14770000  1.08158000
O  14.44780000  12.80940000  3.35221000
H  13.95840000  12.48560000  4.09095000
H  13.97800000  12.46800000  2.60385000
O  13.09610000  11.83600000  5.55320000
H  12.19980000  12.19590000  5.62191000
H  13.50640000  12.17950000  6.34891000
O  10.40360000  8.20055000  5.58052000
H  11.32200000  8.48561000  5.57465000
H  9.98399000  8.50467000  6.34865000
O  10.51590000  12.78930000  5.64954000
H  10.05750000  12.52750000  4.81626000
H  10.48630000  13.76030000  5.64158000
O  12.99310000  9.13554000  1.11153000
H  13.45320000  8.84181000  0.37114900
H  13.44740000  8.78558000  1.85639000
O  13.01780000  9.08895000  5.66652000
H  13.47150000  8.82011000  4.86745000
H  13.08820000  10.06070000  5.68017000
O  9.11140000  11.88590000  7.84956000
H  9.59321000  12.18950000  7.11982000
H  9.60195000  12.18210000  8.62662000
O  9.13268000  11.94170000  3.40408000
H  9.14639000  11.02580000  3.37708000
H  9.60740000  12.22360000  2.57121000
O  10.50990000  12.75920000  1.14561000
H  10.04830000  12.45670000  0.35779900
H  10.48800000  13.72130000  1.10485000
O  10.38270000  8.24429000  1.12305000
H  10.43890000  7.32379000  1.16262000
H  11.29860000  8.53110000  1.14987000
O  14.27450000  8.21855000  3.37776000
H  14.33200000  7.20785000  3.37082000
H  15.18530000  8.53894000  3.40814000
O  14.35660000  8.24210000  7.92886000
H  13.96100000  8.54041000  7.09827000
H  13.49590000  8.83041000  9.41747000
O  14.34890000  12.84030000  7.81574000
H  13.97690000  12.46040000  8.58776000
H  15.22120000  12.49480000  7.83716000
O  9.10387000  9.12374000  7.82168000
H  9.15643000  10.12250000  7.92229000
H  9.56481000  8.83297000  8.66256000
O  1.34750000  1.83227000  12.45530000
H  1.73109000  1.51798000  11.67170000
H  0.47579400  1.50404000  12.40500000
O  5.19746000  4.47510000  10.14780000
H  5.66250000  4.80331000  10.91810000
H  5.70094000  4.82745000  9.36121000
O  6.59122000  5.39691000  12.33580000
H  6.16109000  5.13765000  13.11780000
H  6.57742000  6.37991000  12.35770000
O  5.29966000  4.56183000  14.64010000
H  5.21722000  3.59397000  14.64040000
H  4.39313000  4.86623000  14.67880000
O  2.67028000  0.82849800  14.65850000
H  2.16721000  1.16789000  15.46490000
H  2.17457000  1.21758000  13.94770000
O  2.69726000  5.42605000  14.60550000
H  2.63602000  6.38483000  14.63960000
H  2.20944000  5.15476000  15.36930000
O  5.27867000  1.71412000  10.16020000
H  4.35362000  1.45575000  10.16090000
H  5.27463000  2.68939000  10.15010000
O  5.25225000  1.80108000  14.61970000
H  5.70934000  1.48205000  15.38110000
H  4.33328000  1.47871000  14.61060000
O  1.32892000  4.60929000  16.85020000
H  1.33103000  3.64309000  16.89950000
H  1.81191000  4.91651000  17.66580000
O  1.32723000  4.59077000  12.34770000
H  1.31786000  3.62108000  12.33360000
H  1.84850000  4.96155000  13.12670000
O  2.62816000  5.50105000  10.08290000
H  2.20484000  5.20982000  10.86810000
H  3.54324000  5.21191000  10.11970000
O  2.64238000  0.89783800  10.20170000
H  2.19037000  1.18951000  9.42121000
H  6.11470000  1.15995000  11.66700000
O  6.57380000  0.78989200  12.40360000
H  6.10020000  1.14937000  13.20350000
H  8.29308000  1.42030000  12.39220000
O  6.55107000  0.87576300  16.86450000
H  6.17136000  1.15558000  17.68290000
H  8.26765000  1.49068000  16.92130000
O  6.53045000  5.47802000  16.94520000
H  6.08275000  5.09684000  16.15210000
H  7.45004000  5.16827000  16.93230000
O  1.35654000  1.85694000  16.86780000
H  0.45687100  1.51886000  16.84480000
H  1.77187000  1.46079000  17.65100000
O  9.19592000  1.76418000  12.40840000
H  9.17124000  2.74115000  12.40960000
H  9.96104000  1.15489000  10.90310000
O  13.01530000  4.47250000  10.13160000
H  13.49180000  4.83878000  10.90690000
H  13.50740000  4.84082000  9.33765000
O  14.35560000  5.45994000  12.34390000
H  15.25470000  5.15847000  12.39610000
H  13.89780000  5.08122000  13.15500000
O  13.04660000  4.56912000  14.60300000
H  13.47120000  4.85904000  15.39200000
H  13.07620000  3.61452000  14.60540000
O  10.46550000  0.90209600  14.71230000
H  10.02830000  1.20076000  13.89090000
H  9.58023000  1.46713000  16.14130000
O  10.45570000  5.50000000  14.68670000
H  10.01840000  5.16239000  13.90550000
H  11.33370000  5.18640000  14.61890000
O  13.10770000  1.71158000  10.15420000
H  13.88970000  1.13891000  11.71650000
H  13.93300000  1.17686000  13.17150000
O  13.07940000  1.80331000  14.61270000
H  13.52550000  1.42672000  15.43190000
H  12.21650000  1.51334000  14.65600000
O  9.14515000  4.61397000  16.96150000
H  9.12493000  3.66053000  16.86770000
H  9.59912000  4.91522000  16.11130000
O  9.20741000  4.51873000  12.44440000
H  8.34397000  4.80045000  12.39720000
H  9.65591000  4.81898000  11.62200000
O  10.45440000  5.48555000  10.18980000
H  10.06570000  5.16967000  9.38556000
H  11.36530000  5.13581000  10.19270000
O  10.48700000  0.81492100  10.15240000
H  10.41850000  7.25987000  10.16500000
H  11.28910000  8.51366000  10.16120000
O  14.39180000  0.78340400  12.40220000
H  13.89880000  1.15965000  17.67470000
H  15.31660000  5.13247000  16.87190000
O  14.36280000  0.88488600  16.86090000
H  14.35560000  6.37324000  16.92750000
H  13.85810000  8.49416000  16.19900000
O  14.34190000  5.40957000  16.89060000
H  15.21320000  8.50344000  16.94830000
H  13.51410000  8.82550000  13.95870000
O  9.16285000  1.85252000  16.95070000
H  6.49919000  7.25641000  16.91580000
H  10.43290000  7.29670000  14.67290000
O  1.30160000  9.10506000  12.46090000
H  1.77679000  8.83542000  11.66380000
H  1.30925000  10.05390000  12.38900000
O  5.27629000  11.81080000  10.08560000
H  5.66857000  12.20000000  10.92480000
H  4.38970000  12.14290000  10.14810000
O  6.58692000  12.73300000  12.33880000
H  6.13485000  12.47800000  13.18370000
H  6.55615000  13.69260000  12.34040000
O  5.30237000  11.91800000  14.64450000
H  5.25822000  10.95660000  14.66370000
H  4.43451000  12.18310000  14.67230000
O  2.57974000  8.17872000  14.70400000
H  2.16657000  8.53581000  13.91670000
H  3.46951000  8.49190000  14.66640000
O  2.69099000  12.78430000  14.60180000
H  2.65532000  13.76030000  14.67370000
H  2.17491000  12.48990000  15.37410000
O  5.21377000  9.05939000  10.20770000
H  5.24731000  10.05380000  10.13210000
H  5.58471000  8.80024000  9.43580000
O  5.16656000  9.15489000  14.65090000
H  5.62875000  8.80373000  15.38840000
H  5.62084000  8.80903000  13.90110000
O  1.38190000  11.89980000  16.84590000
H  1.76152000  12.24470000  17.65790000
H  0.49748500  12.22180000  16.89600000
O  1.37919000  11.87160000  12.34500000
H  0.46188900  12.27160000  12.37890000
H  1.83192000  12.21370000  13.13340000
O  2.71929000  12.84750000  10.13780000
H  2.22237000  12.54280000  10.82490000
H  2.17992000  12.55170000  9.35147000
O  2.55338000  8.24045000  10.15270000
H  2.59257000  7.32666000  10.14410000
H  3.48155000  8.48438000  10.15470000
O  6.48731000  8.14752000  12.45750000
H  7.36092000  8.50676000  12.44920000
H  6.05293000  8.44807000  11.70830000
O  6.46147000  8.23397000  16.90860000
H  7.36322000  8.50151000  16.91420000
H  9.51850000  8.87603000  17.65290000
O  6.61970000  12.83820000  16.89540000
H  6.14564000  12.49320000  16.16300000
H  6.15225000  12.48060000  17.66910000
O  1.29229000  9.12757000  16.96280000
H  1.73829000  8.85766000  16.18020000
H  1.35474000  10.07840000  16.91270000
O  9.10929000  9.19295000  12.40040000
H  9.60137000  8.83035000  11.67490000
H  9.54229000  8.84186000  13.20160000
O  13.12180000  11.90330000  10.14580000
H  13.07270000  10.96010000  10.16480000
H  12.21290000  12.19850000  10.14260000
O  14.40520000  12.75450000  12.43510000
H  13.95710000  12.43130000  11.64700000
H  14.38660000  13.68000000  12.40180000
O  13.09590000  11.85130000  14.69410000
H  13.48060000  12.21470000  13.87190000
H  12.16340000  12.18440000  14.62290000
O  10.38260000  8.25094000  14.65890000
H  11.32480000  8.56187000  14.65890000
H  9.59588000  8.85387000  16.13500000
O  10.53430000  12.87370000  14.65600000
H  10.05450000  12.53420000  13.86470000
H  10.06620000  12.49960000  15.39960000
O  12.98960000  9.14694000  10.15520000
H  13.44700000  8.77203000  10.91210000
H  15.21920000  8.51573000  12.39820000
O  13.01350000  9.08764000  14.70410000
H  13.10280000  10.06520000  14.70930000
H  14.32240000  7.22435000  12.39430000
O  9.22294000  11.96680000  16.89860000
H  8.30960000  12.20580000  16.96050000
H  9.19254000  11.02030000  16.92010000
O  9.22782000  11.94890000  12.39670000
H  8.28536000  12.23950000  12.37730000
H  9.15681000  11.01750000  12.37480000
O  10.50540000  12.75830000  10.08990000
H  10.45340000  13.71600000  10.15240000
H  10.00860000  12.47870000  10.85110000
O  10.38560000  8.24364000  10.16380000
H  6.55389000  14.63310000  7.86543000
H  10.44450000  14.63720000  14.64470000
O  14.29140000  8.22158000  12.41260000
H  13.95150000  12.46910000  16.17680000
H  14.00220000  12.56900000  17.61320000
O  14.30360000  8.16295000  16.95240000
H  14.35640000  14.61350000  16.90000000
H  6.55186000  14.66070000  16.97340000
O  14.43860000  12.83700000  16.88900000
H  14.35850000  14.62410000  7.86891000
H  14.34880000  14.65130000  3.35716000
O  9.09880000  9.21002000  16.90970000
H  2.64203000  14.62800000  10.15270000
H  6.54451000  14.60270000  3.39398000
384
Lattice="15.6456775311 0 0  0.0000000000 14.7071452944 0  0.0000000000 0.0000000000 18.0730370308" Properties=species:S:1:pos:R:3 step=20
O  1.38280000  1.73796000  3.39227000
H  1.32075000  2.73024000  3.28359000
H  0.51158000  1.46616000  3.33503000
O  5.20716000  4.47045000  1.13196000
H  5.68448000  4.84326000  1.90575000
H  5.69323000  4.78844000  0.34922300
O  6.58807000  5.39423000  3.29440000
H  6.11366000  5.16736000  4.13795000
H  6.53324000  6.39081000  3.25563000
O  5.28443000  4.49054000  5.57529000
H  4.47779000  4.85049000  5.58743000
H  5.77939000  4.80742000  6.36011000
O  2.57563000  0.85008100  5.66940000
H  2.17114000  1.14841000  4.78692000
H  3.43730000  1.15722000  5.62825000
O  2.69592000  5.44315000  5.55102000
H  2.62241000  6.35995000  5.58220000
H  2.16929000  5.14869000  6.42801000
O  5.18822000  1.70136000  1.09171000
H  5.17445000  2.76374000  1.11150000
H  5.60402000  1.42221000  1.93258000
O  5.19919000  1.73422000  5.57733000
H  5.68843000  1.43642000  6.44053000
H  5.22186000  2.66103000  5.59585000
O  1.35080000  4.62852000  7.82367000
H  1.33786000  3.69115000  7.82728000
H  1.73811000  4.94076000  8.67009000
O  1.30823000  4.48833000  3.36306000
H  1.79737000  4.80159000  2.54621000
H  1.67702000  4.85376000  4.12759000
O  2.59326000  5.40095000  1.12676000
H  2.58842000  6.33156000  1.11370000
H  3.53398000  5.22124000  0.97648800
O  2.58228000  0.82428500  1.07535000
H  2.15424000  1.12907000  1.83282000
H  3.38638000  1.17907000  1.05675000
O  6.54645000  0.83876400  3.34029000
H  6.13930000  1.09764000  4.16356000
H  8.39084000  1.56981000  3.36440000
O  6.52147000  0.87645900  7.81973000
H  6.05240000  1.21182000  8.57644000
H  8.33711000  1.46927000  7.94199000
O  6.50442000  5.43495000  7.86822000
H  7.42436000  5.16296000  7.84739000
H  6.54913000  6.41905000  7.94274000
O  1.33966000  1.82869000  7.90717000
H  1.75414000  1.52744000  7.10137000
H  0.42699300  1.45762000  7.97331000
O  9.20570000  1.75344000  3.34705000
H  9.09767000  2.69136000  3.32927000
H  10.00240000  1.06735000  1.88327000
O  13.04880000  4.56614000  1.13501000
H  13.06170000  3.52969000  1.16367000
H  13.45190000  4.83488000  0.34927500
O  14.38920000  5.46793000  3.40249000
H  15.19490000  5.13162000  3.36802000
H  13.90030000  5.03358000  2.58719000
O  13.10030000  4.51870000  5.66422000
H  13.43860000  4.83834000  4.83126000
H  12.28920000  4.79404000  5.68775000
O  10.42310000  0.86136800  5.65825000
H  9.93971000  1.21539000  4.84087000
H  11.35540000  1.14678000  5.64812000
O  10.48440000  5.43887000  5.65491000
H  10.12150000  5.22392000  4.92143000
H  10.46930000  6.32291000  5.66272000
O  13.08240000  1.79328000  1.08251000
H  12.13580000  1.37119000  1.09826000
H  13.46000000  1.40336000  1.77049000
O  13.01120000  1.74208000  5.59857000
H  13.43360000  1.44101000  6.33839000
H  13.05670000  2.70455000  5.73511000
O  9.13792000  4.60079000  7.89749000
H  9.08586000  3.59871000  7.80857000
H  9.62380000  4.78814000  7.20945000
O  9.20859000  4.51580000  3.38886000
H  8.29608000  4.86767000  3.27603000
H  9.64229000  4.78501000  2.68684000
O  10.42810000  5.48209000  1.13378000
H  10.06050000  5.16772000  0.28616700
H  11.40120000  5.12217000  1.17669000
O  10.46530000  0.81793700  1.12593000
H  10.06310000  1.15847000  0.35762800
H  13.87550000  1.13161000  4.15921000
O  14.35480000  0.86473300  3.36268000
H  13.85640000  1.13430000  8.62533000
H  13.89060000  5.17385000  7.08552000
O  14.37430000  0.87576200  7.82943000
H  13.04040000  2.75124000  10.11840000
H  12.15620000  1.50954000  10.08530000
O  14.37490000  5.50935000  7.91386000
H  15.28130000  5.17130000  7.83995000
H  14.26100000  7.31508000  7.86605000
O  9.17678000  1.83981000  7.92147000
H  9.56107000  1.53275000  7.09790000
H  9.96137000  1.11597000  9.31677000
O  1.31021000  9.11787000  3.35809000
H  1.73609000  8.72870000  4.10831000
H  1.33436000  10.10270000  3.30740000
O  5.32197000  11.90740000  1.11265000
H  5.19595000  10.97570000  1.02770000
H  4.37100000  12.14040000  1.17054000
O  6.52506000  12.81140000  3.39579000
H  7.45276000  12.50760000  3.35334000
H  6.02967000  12.40210000  2.58852000
O  5.18904000  11.81660000  5.61979000
H  5.62776000  12.10100000  6.30992000
H  5.66036000  12.22270000  4.88282000
O  2.58610000  8.18780000  5.56468000
H  3.55671000  8.49488000  5.64416000
H  2.18550000  8.58170000  6.42260000
O  2.59563000  12.77790000  5.61015000
H  2.63848000  13.75650000  5.63395000
H  3.56434000  12.50450000  5.72021000
O  5.24889000  9.14157000  1.18117000
H  4.37568000  8.82510000  1.12043000
H  5.58881000  8.82274000  0.38822600
O  5.20392000  9.07119000  5.66695000
H  5.60246000  8.84869000  4.89051000
H  5.18531000  10.06070000  5.69185000
O  1.30397000  11.96620000  7.91288000
H  1.33707000  11.02280000  7.83720000
H  1.75897000  12.31680000  7.08601000
O  1.38151000  11.87820000  3.30240000
H  0.56536400  12.23990000  3.34242000
H  1.77339000  12.29200000  4.13722000
O  2.68137000  12.76350000  1.02036000
H  2.57676000  13.70920000  1.10268000
H  2.22150000  12.51860000  1.80099000
O  2.67120000  8.18003000  1.12442000
H  2.17914000  8.53430000  0.34347700
H  2.23032000  8.46305000  1.99015000
O  6.50830000  8.13563000  3.40511000
H  7.34503000  8.51041000  3.34867000
H  6.07252000  8.50480000  2.58051000
O  6.46154000  8.19529000  7.92561000
H  6.01976000  8.57458000  7.14430000
H  7.40229000  8.38517000  7.80106000
O  6.53480000  12.84320000  7.83078000
H  6.13880000  12.60380000  8.63403000
H  7.47774000  12.50220000  7.88839000
O  1.35628000  9.18924000  7.81894000
H  0.46329700  8.82998000  7.83891000
H  1.77242000  8.80441000  8.63055000
O  9.08654000  9.20398000  3.35358000
H  9.48881000  8.82121000  2.62295000
H  9.54958000  8.88511000  4.17687000
O  13.13500000  11.89230000  1.07708000
H  13.10780000  11.02120000  1.24465000
H  12.18150000  12.10770000  1.06194000
O  14.46310000  12.80320000  3.35051000
H  13.96370000  12.48940000  4.06631000
H  14.00590000  12.44790000  2.61585000
O  13.09370000  11.82920000  5.53904000
H  12.19260000  12.20690000  5.64598000
H  13.49100000  12.17850000  6.33789000
O  10.39480000  8.21149000  5.58154000
H  11.34000000  8.45411000  5.52679000
H  9.97071000  8.47410000  6.32633000
O  10.52500000  12.79210000  5.64776000
H  10.06860000  12.55540000  4.75668000
H  10.49300000  13.78160000  5.66649000
O  12.99430000  9.13002000  1.10468000
H  13.42830000  8.87879000  0.38251400
H  13.42390000  8.76774000  1.83158000
O  13.01660000  9.09518000  5.66566000
H  13.46450000  8.84068000  4.86291000
H  13.12570000  10.07700000  5.73548000
O  9.10224000  11.87900000  7.83678000
H  9.58588000  12.14850000  7.12971000
H  9.59529000  12.14690000  8.63492000
O  9.11794000  11.93530000  3.40600000
H  9.13761000  11.06280000  3.37448000
H  9.60178000  12.22920000  2.53203000
O  10.51170000  12.75150000  1.14251000
H  10.05380000  12.40710000  0.35767300
H  10.50430000  13.71840000  1.07584000
O  10.37980000  8.24164000  1.12729000
H  10.44160000  7.35298000  1.21516000
H  11.29250000  8.53546000  1.17902000
O  14.26200000  8.21971000  3.38276000
H  14.32320000  7.14359000  3.37859000
H  15.17750000  8.56388000  3.44432000
O  14.34900000  8.24654000  7.93623000
H  14.01090000  8.56656000  7.06669000
H  13.52370000  8.85984000  9.44386000
O  14.34250000  12.84790000  7.81844000
H  14.01970000  12.43200000  8.56550000
H  15.17900000  12.47900000  7.82380000
O  9.08832000  9.11694000  7.81477000
H  9.16432000  10.15340000  7.99079000
H  9.56608000  8.81338000  8.71087000
O  1.34407000  1.83186000  12.46000000
H  1.68956000  1.55290000  11.68210000
H  0.49176300  1.52659000  12.39270000
O  5.19496000  4.47592000  10.15280000
H  5.63857000  4.79165000  10.94040000
H  5.73497000  4.83919000  9.33456000
O  6.59650000  5.40730000  12.32430000
H  6.20317000  5.17071000  13.09630000
H  6.60217000  6.42168000  12.33660000
O  5.29423000  4.56110000  14.63550000
H  5.17968000  3.57379000  14.63500000
H  4.39919000  4.87367000  14.70780000
O  2.67107000  0.81950100  14.65300000
H  2.13816000  1.15683000  15.52100000
H  2.15767000  1.26341000  13.99880000
O  2.70756000  5.41954000  14.61310000
H  2.61486000  6.38042000  14.64850000
H  2.19194000  5.15634000  15.34610000
O  5.27865000  1.71864000  10.16690000
H  4.34708000  1.47128000  10.16670000
H  5.30913000  2.70894000  10.14940000
O  5.25415000  1.79480000  14.62860000
H  5.75668000  1.49048000  15.34970000
H  4.31282000  1.48222000  14.57360000
O  1.33357000  4.60838000  16.84910000
H  1.32199000  3.63207000  16.91170000
H  1.85238000  4.95894000  17.68740000
O  1.33260000  4.58783000  12.34500000
H  1.30144000  3.59773000  12.27440000
H  1.92151000  5.06111000  13.10920000
O  2.62500000  5.51285000  10.07200000
H  2.19660000  5.26631000  10.84690000
H  3.57314000  5.27872000  10.09950000
O  2.64734000  0.90347000  10.19810000
H  2.19050000  1.20239000  9.43330000
H  6.12989000  1.19488000  11.68580000
O  6.58048000  0.79006900  12.39840000
H  6.10574000  1.16469000  13.23950000
H  8.29967000  1.35008000  12.37730000
O  6.56130000  0.86553900  16.86090000
H  6.26494000  1.15974000  17.70580000
H  8.24489000  1.48728000  16.92730000
O  6.52746000  5.47601000  16.94730000
H  6.04879000  5.04923000  16.15700000
H  7.46244000  5.17740000  16.96680000
O  1.36642000  1.86089000  16.87330000
H  0.45378000  1.53899000  16.79660000
H  1.78001000  1.40991000  17.64400000
O  9.19158000  1.76905000  12.41210000
H  9.18813000  2.76482000  12.41790000
H  9.90344000  1.15389000  10.90000000
O  13.00890000  4.47279000  10.12050000
H  13.47420000  4.86443000  10.91680000
H  13.51280000  4.87154000  9.27846000
O  14.35620000  5.46021000  12.34330000
H  15.24880000  5.17999000  12.40570000
H  13.84550000  5.03194000  13.17500000
O  13.04640000  4.57454000  14.60520000
H  13.43130000  4.87578000  15.39680000
H  13.09850000  3.62141000  14.56980000
O  10.46650000  0.88890200  14.71480000
H  10.04910000  1.20940000  13.86470000
H  9.57177000  1.42615000  16.10940000
O  10.45740000  5.48932000  14.68310000
H  10.00010000  5.15297000  13.90690000
H  11.32740000  5.21576000  14.58240000
O  13.11370000  1.71232000  10.15630000
H  13.85950000  1.14848000  11.78670000
H  13.93910000  1.22450000  13.17990000
O  13.08340000  1.79932000  14.61390000
H  13.56850000  1.38579000  15.46680000
H  12.26530000  1.55727000  14.66660000
O  9.14366000  4.61828000  16.98020000
H  9.08244000  3.66758000  16.81990000
H  9.58382000  4.94509000  16.06770000
O  9.21706000  4.51849000  12.44720000
H  8.39249000  4.75027000  12.39100000
H  9.71024000  4.77676000  11.60420000
O  10.45460000  5.48050000  10.19530000
H  10.09880000  5.17658000  9.37896000
H  11.38920000  5.12769000  10.23190000
O  10.48330000  0.81363600  10.14760000
H  10.40910000  7.23103000  10.18010000
H  11.27730000  8.49561000  10.17300000
O  14.39420000  0.77489700  12.39610000
H  13.88980000  1.16085000  17.69030000
H  15.38630000  5.11871000  16.85420000
O  14.36100000  0.88522400  16.85530000
H  14.35270000  6.37840000  16.95850000
H  13.82000000  8.49626000  16.23410000
O  14.35390000  5.41590000  16.88670000
H  15.22260000  8.49951000  16.97700000
H  13.55880000  8.85697000  14.00750000
O  9.15065000  1.85076000  16.94250000
H  6.47873000  7.21753000  16.92330000
H  10.44580000  7.28349000  14.69530000
O  1.30619000  9.09592000  12.47130000
H  1.80488000  8.85036000  11.66490000
H  1.28763000  10.03810000  12.36310000
O  5.27475000  11.79580000  10.07470000
H  5.63795000  12.23670000  10.96610000
H  4.40122000  12.11220000  10.16650000
O  6.58998000  12.72380000  12.32970000
H  6.14349000  12.50420000  13.23160000
H  6.55591000  13.68690000  12.29850000
O  5.30101000  11.91590000  14.64180000
H  5.27052000  10.94870000  14.68200000
H  4.48228000  12.15600000  14.69860000
O  2.57347000  8.16596000  14.69890000
H  2.15531000  8.55064000  13.92080000
H  3.45416000  8.46789000  14.66200000
O  2.69507000  12.78180000  14.60640000
H  2.65689000  13.78590000  14.72120000
H  2.11233000  12.48170000  15.36350000
O  5.23311000  9.05149000  10.21560000
H  5.26909000  10.08660000  10.09160000
H  5.51356000  8.82613000  9.47152000
O  5.16267000  9.14752000  14.64160000
H  5.61627000  8.78516000  15.35590000
H  5.59427000  8.80372000  13.90110000
O  1.38857000  11.90860000  16.83640000
H  1.72898000  12.28010000  17.66690000
H  0.52257600  12.22830000  16.90250000
O  1.38012000  11.87180000  12.34240000
H  0.45041200  12.35760000  12.37240000
H  1.88265000  12.21530000  13.11850000
O  2.72469000  12.85460000  10.13710000
H  2.22117000  12.57170000  10.74350000
H  2.13283000  12.59620000  9.31327000
O  2.54590000  8.23611000  10.14770000
H  2.57522000  7.36495000  10.13260000
H  3.48399000  8.44106000  10.15470000
O  6.48515000  8.15200000  12.46080000
H  7.33120000  8.51546000  12.47940000
H  6.02942000  8.40994000  11.76110000
O  6.45997000  8.22930000  16.90190000
H  7.35955000  8.46780000  16.91220000
H  9.46871000  8.89764000  17.63990000
O  6.62586000  12.84140000  16.89600000
H  6.15842000  12.47750000  16.18660000
H  6.17203000  12.46710000  17.68330000
O  1.28666000  9.12557000  16.96990000
H  1.72018000  8.86665000  16.20720000
H  1.38735000  10.07250000  16.90410000
O  9.12756000  9.19890000  12.39660000
H  9.63660000  8.81404000  11.70010000
H  9.51216000  8.84447000  13.24860000
O  13.11720000  11.90960000  10.14800000
H  13.07430000  10.98710000  10.18300000
H  12.20650000  12.21390000  10.14530000
O  14.39850000  12.76880000  12.43340000
H  13.96300000  12.40550000  11.65110000
H  14.40420000  13.65860000  12.39040000
O  13.09220000  11.85960000  14.69610000
H  13.43460000  12.25150000  13.82960000
H  12.11710000  12.17260000  14.59830000
O  10.38190000  8.23357000  14.65530000
H  11.35600000  8.58407000  14.65510000
H  9.62376000  8.84657000  16.11610000
O  10.53540000  12.88840000  14.67060000
H  10.05680000  12.54640000  13.83990000
H  10.08540000  12.46010000  15.39140000
O  12.98450000  9.15215000  10.15540000
H  13.41830000  8.73050000  10.91610000
H  15.24380000  8.52770000  12.38650000
O  13.00670000  9.09158000  14.70500000
H  13.16850000  10.09090000  14.75200000
H  14.30890000  7.17961000  12.38690000
O  9.22373000  11.96980000  16.89810000
H  8.31284000  12.16560000  17.02580000
H  9.18992000  11.03360000  16.94290000
O  9.23226000  11.95350000  12.39690000
H  8.25840000  12.26140000  12.35870000
H  9.12397000  11.05160000  12.35360000
O  10.50050000  12.74610000  10.08810000
H  10.43090000  13.70860000  10.18030000
H  9.97050000  12.47030000  10.80860000
O  10.38770000  8.24193000  10.17070000
H  6.57479000  14.62960000  7.86792000
H  10.42770000  14.60370000  14.62240000
O  14.29860000  8.22453000  12.41760000
H  13.94580000  12.43230000  16.20610000
H  14.05250000  12.65400000  17.57170000