ITEM: TIMESTEP
103
ITEM: NUMBER OF ATOMS
384
ITEM: BOX BOUNDS xy xz yz pp pp pp
0.0000000000000000e+00 1.5645677531129000e+01 0.0000000000000000e+00
0.0000000000000000e+00 1.4707145294364000e+01 0.0000000000000000e+00
0.0000000000000000e+00 1.8073037030847999e+01 0.0000000000000000e+00
ITEM: ATOMS id type mass x y z
1 1 15.9994 1.31502 1.79339 3.32885
2 2 1.008 1.28344 2.77627 3.34088
3 2 1.008 0.384598 1.47596 3.34104
4 1 15.9994 5.28368 4.57635 1.10392
5 2 1.008 5.74401 4.93057 1.89758
6 2 1.008 5.77973 4.89564 0.31765
7 1 15.9994 6.52453 5.5154 3.38119
8 2 1.008 6.06445 5.19974 4.19006
9 2 1.008 6.50802 6.49853 3.41113
10 1 15.9994 5.23738 4.55829 5.64275
11 2 1.008 4.31208 4.88895 5.67095
12 2 1.008 5.68407 4.90375 6.44775
13 1 15.9994 2.62645 0.874308 5.5871
14 2 1.008 2.19011 1.21344 4.77441
15 2 1.008 3.54562 1.22241 5.58224
16 1 15.9994 2.62016 5.4681 5.62786
17 2 1.008 2.61381 6.45105 5.65689
18 2 1.008 2.16266 5.15958 6.4413
19 1 15.9994 5.26147 1.80446 1.1101
20 2 1.008 5.29096 2.78684 1.1288
21 2 1.008 5.72043 1.49495 1.92258
22 1 15.9994 5.24167 1.78981 5.62711
23 2 1.008 5.68937 1.47216 6.44276
24 2 1.008 5.26031 2.77238 5.66051
25 1 15.9994 1.3402 4.52772 7.89558
26 2 1.008 1.34619 3.54499 7.90454
27 2 1.008 1.80769 4.81767 8.71109
28 1 15.9994 1.33545 4.55089 3.35662
29 2 1.008 1.83806 4.88241 2.57885
30 2 1.008 1.7993 4.88862 4.15542
31 1 15.9994 2.66719 5.444 1.11204
32 2 1.008 2.66376 6.4274 1.09735
33 2 1.008 3.61077 5.16567 1.10137
34 1 15.9994 2.65153 0.875995 1.10292
35 2 1.008 2.19467 1.22533 1.90146
36 2 1.008 3.57044 1.22322 1.13075
37 1 15.9994 6.54241 0.868145 3.37553
38 2 1.008 6.07772 1.16365 4.19059
39 2 1.008 8.20609 1.49765 3.35045
40 1 15.9994 6.52381 0.841328 7.88752
41 2 1.008 6.0657 1.15334 8.70019
42 2 1.008 8.21579 1.40615 7.83559
43 1 15.9994 6.5678 5.48151 7.89181
44 2 1.008 7.49771 5.16374 7.86308
45 2 1.008 6.60452 6.46424 7.87803
46 1 15.9994 1.31453 1.76001 7.86379
47 2 1.008 1.74662 1.43775 7.04252
48 2 1.008 0.39035 1.42416 7.85405
49 1 15.9994 9.13574 1.81809 3.32733
50 2 1.008 9.09507 2.80036 3.32607
51 2 1.008 9.95838 1.22989 1.85945
52 1 15.9994 13.0645 4.51224 1.07329
53 2 1.008 13.0854 3.52938 1.05581
54 2 1.008 13.5364 4.82323 0.268485
55 1 15.9994 14.3651 5.43686 3.33127
56 2 1.008 15.2923 5.10917 3.31282
57 2 1.008 13.9303 5.09638 2.51782
58 1 15.9994 13.0704 4.53787 5.59885
59 2 1.008 13.5092 4.86725 4.78252
60 2 1.008 12.1468 4.87358 5.57464
61 1 15.9994 10.4477 0.881717 5.56677
62 2 1.008 10.0114 1.24264 4.7623
63 2 1.008 11.3722 1.21401 5.56357
64 1 15.9994 10.4572 5.44997 5.58489
65 2 1.008 9.9845 5.17314 4.76802
66 2 1.008 10.4489 6.4331 5.59324
67 1 15.9994 13.0713 1.74707 1.09994
68 2 1.008 12.14 1.43008 1.12042
69 2 1.008 13.5018 1.41165 1.91792
70 1 15.9994 13.0754 1.77455 5.62182
71 2 1.008 13.5228 1.4706 6.44245
72 2 1.008 13.0913 2.75747 5.63776
73 1 15.9994 9.16654 4.51791 7.83906
74 2 1.008 9.16146 3.53557 7.81412
75 2 1.008 9.62538 4.8188 7.02248
76 1 15.9994 9.13122 4.58345 3.32739
77 2 1.008 8.21565 4.93972 3.31981
78 2 1.008 9.57065 4.89492 2.50436
79 1 15.9994 10.4577 5.42208 1.0585
80 2 1.008 10.0316 5.08319 0.239019
81 2 1.008 11.3801 5.07956 1.05141
82 1 15.9994 10.4535 0.880242 1.08545
83 2 1.008 9.98636 1.20702 0.284285
84 2 1.008 13.9068 1.14655 4.18097
85 1 15.9994 14.3633 0.839136 3.36571
86 2 1.008 13.8831 1.17768 8.70733
87 2 1.008 13.9417 5.11066 7.04583
88 1 15.9994 14.3484 0.856437 7.90259
89 2 1.008 13.0287 2.79935 10.1291
90 2 1.008 12.0988 1.52466 10.1394
91 1 15.9994 14.3837 5.44788 7.8563
92 2 1.008 15.3062 5.10685 7.84316
93 2 1.008 14.3453 7.22527 7.83946
94 1 15.9994 9.13831 1.74542 7.85099
95 2 1.008 9.57696 1.41705 7.03531
96 2 1.008 9.96013 1.20239 9.33855
97 1 15.9994 1.3455 9.13132 3.36308
98 2 1.008 1.81176 8.83197 4.17588
99 2 1.008 1.34955 10.114 3.3909
100 1 15.9994 5.21632 11.875 1.11177
101 2 1.008 5.18487 10.8926 1.09654
102 2 1.008 4.28319 12.1858 1.12344
103 1 15.9994 6.56129 12.8061 3.35314
104 2 1.008 7.48 12.4573 3.31909
105 2 1.008 6.1003 12.4594 2.55746
106 1 15.9994 5.24799 11.9344 5.62699
107 2 1.008 5.7394 12.2474 6.41918
108 2 1.008 5.73775 12.2598 4.8392
109 1 15.9994 2.64041 8.23515 5.63171
110 2 1.008 3.56203 8.57924 5.65484
111 2 1.008 2.19416 8.5636 6.4434
112 1 15.9994 2.63138 12.8196 5.63664
113 2 1.008 2.65155 13.8027 5.62086
114 2 1.008 3.57013 12.5271 5.62929
115 1 15.9994 5.22793 9.11003 1.0775
116 2 1.008 4.30662 8.76994 1.05477
117 2 1.008 5.67754 8.7694 0.271712
118 1 15.9994 5.23803 9.17113 5.62454
119 2 1.008 5.70058 8.87745 4.8074
120 2 1.008 5.2506 10.1545 5.6071
121 1 15.9994 1.31467 11.8777 7.88435
122 2 1.008 1.32936 10.8951 7.85761
123 2 1.008 1.78848 12.1914 7.08252
124 1 15.9994 1.32574 11.9025 3.38147
125 2 1.008 0.395326 12.2195 3.40981
126 2 1.008 1.76845 12.2444 4.19045
127 1 15.9994 2.61531 12.8156 1.1236
128 2 1.008 2.62777 13.7984 1.14614
129 2 1.008 2.15095 12.5224 1.94011
130 1 15.9994 2.60877 8.20088 1.08473
131 2 1.008 2.12848 8.54936 0.301267
132 2 1.008 2.14704 8.54809 1.88015
133 1 15.9994 6.53436 8.27192 3.36741
134 2 1.008 7.46699 8.58388 3.33529
135 2 1.008 6.09691 8.58496 2.54487
136 1 15.9994 6.57395 8.24611 7.86331
137 2 1.008 6.13409 8.58508 7.05216
138 2 1.008 7.49489 8.59312 7.85277
139 1 15.9994 6.56112 12.7789 7.9029
140 2 1.008 6.11268 12.4446 8.71131
141 2 1.008 7.48877 12.4563 7.93721
142 1 15.9994 1.32134 9.12003 7.89723
143 2 1.008 0.399134 8.78157 7.91448
144 2 1.008 1.77007 8.77198 8.70013
145 1 15.9994 9.16314 9.10597 3.35285
146 2 1.008 9.64711 8.74632 2.57443
147 2 1.008 9.63566 8.78199 4.15115
148 1 15.9994 13.0316 11.8485 1.12635
149 2 1.008 13.0028 10.8657 1.1231
150 2 1.008 12.1005 12.1637 1.1033
151 1 15.9994 14.349 12.7769 3.37663
152 2 1.008 13.8651 12.4564 4.17043
153 2 1.008 13.8629 12.4328 2.59431
154 1 15.9994 13.0409 11.9054 5.64703
155 2 1.008 12.1205 12.2504 5.66146
156 2 1.008 13.4813 12.2316 6.46288
157 1 15.9994 10.4678 8.21382 5.63391
158 2 1.008 11.3906 8.55468 5.64155
159 2 1.008 10.0357 8.5589 6.44576
160 1 15.9994 10.4326 12.8302 5.61503
161 2 1.008 9.98464 12.5008 4.80437
162 2 1.008 10.4205 13.812 5.56073
163 1 15.9994 13.053 9.08379 1.10211
164 2 1.008 13.5383 8.77206 0.304807
165 2 1.008 13.5526 8.75564 1.88307
166 1 15.9994 13.0711 9.1366 5.60416
167 2 1.008 13.5448 8.83483 4.79717
168 2 1.008 13.0765 10.1191 5.5892
169 1 15.9994 9.19036 11.9118 7.90795
170 2 1.008 9.64666 12.2586 7.10915
171 2 1.008 9.66713 12.2695 8.6893
172 1 15.9994 9.16343 11.8746 3.34075
173 2 1.008 9.18872 10.892 3.32209
174 2 1.008 9.62466 12.1834 2.52929
175 1 15.9994 10.4427 12.8093 1.06952
176 2 1.008 9.96201 12.5151 0.262903
177 2 1.008 10.4328 13.7916 1.05954
178 1 15.9994 10.4549 8.17905 1.10972
179 2 1.008 10.4757 7.19577 1.08254
180 2 1.008 11.3939 8.47404 1.10668
181 1 15.9994 14.3858 8.20574 3.35319
182 2 1.008 14.4067 7.22296 3.34755
183 2 1.008 15.3218 8.50804 3.36056
184 1 15.9994 14.3474 8.20761 7.88379
185 2 1.008 13.8986 8.52438 7.06877
186 2 1.008 13.5246 8.77178 9.35439
187 1 15.9994 14.3464 12.7965 7.92239
188 2 1.008 13.9093 12.4424 8.729
189 2 1.008 15.269 12.4584 7.92886
190 1 15.9994 9.17376 9.15388 7.90065
191 2 1.008 9.20437 10.1365 7.92833
192 2 1.008 9.6335 8.83633 8.70958
193 1 15.9994 1.33767 1.74695 12.3899
194 2 1.008 1.77363 1.41159 11.5759
195 2 1.008 0.405065 1.43416 12.3592
196 1 15.9994 5.27076 4.54238 10.1423
197 2 1.008 5.73862 4.88356 10.9372
198 2 1.008 5.75358 4.89285 9.36062
199 1 15.9994 6.54293 5.4706 12.4146
200 2 1.008 6.07092 5.15205 13.2159
201 2 1.008 6.51703 6.45307 12.441
202 1 15.9994 5.23915 4.52243 14.664
203 2 1.008 5.21105 3.53962 14.6687
204 2 1.008 4.30567 4.82901 14.6854
205 1 15.9994 2.63413 0.869096 14.6679
206 2 1.008 2.14116 1.20342 15.4518
207 2 1.008 2.15373 1.18677 13.8715
208 1 15.9994 2.62464 5.44131 14.6953
209 2 1.008 2.6034 6.42368 14.6989
210 2 1.008 2.16254 5.14285 15.5102
211 1 15.9994 5.23204 1.77756 10.1457
212 2 1.008 4.29453 1.48034 10.1282
213 2 1.008 5.22089 2.76058 10.1383
214 1 15.9994 5.23879 1.75534 14.6686
215 2 1.008 5.67982 1.41675 15.4795
216 2 1.008 4.3126 1.42279 14.6925
217 1 15.9994 1.33249 4.51765 16.9555
218 2 1.008 1.3308 3.53465 16.9685
219 2 1.008 1.81202 4.81062 17.763
220 1 15.9994 1.37062 4.50452 12.4192
221 2 1.008 1.37868 3.52117 12.4327
222 2 1.008 1.81802 4.80673 13.2411
223 1 15.9994 2.65127 5.42075 10.1528
224 2 1.008 2.22577 5.08542 10.9736
225 2 1.008 3.58035 5.0986 10.1675
226 1 15.9994 2.63376 0.851845 10.1124
227 2 1.008 2.16037 1.14572 9.30205
228 2 1.008 6.04974 1.20974 11.6185
229 1 15.9994 6.54217 0.880271 12.4035
230 2 1.008 6.06016 1.20776 13.1966
231 2 1.008 8.19929 1.49076 12.3961
232 1 15.9994 6.55113 0.845221 16.9264
233 2 1.008 6.09899 1.16828 17.7376
234 2 1.008 8.23948 1.41095 16.8656
235 1 15.9994 6.59567 5.44438 16.8981
236 2 1.008 6.12917 5.10201 16.1035
237 2 1.008 7.51562 5.09812 16.8536
238 1 15.9994 1.3193 1.74802 16.9185
239 2 1.008 0.401761 1.39394 16.9547
240 2 1.008 1.77984 1.41732 17.7224
241 1 15.9994 9.13741 1.79018 12.3912
242 2 1.008 9.11529 2.77296 12.395
243 2 1.008 9.94979 1.24148 10.9171
244 1 15.9994 13.0698 4.58343 10.1258
245 2 1.008 13.5632 4.90197 10.914
246 2 1.008 13.5559 4.90731 9.33491
247 1 15.9994 14.4136 5.43054 12.3954
248 2 1.008 15.3333 5.08226 12.4183
249 2 1.008 13.9686 5.08083 13.1993
250 1 15.9994 13.0994 4.49915 14.6444
251 2 1.008 13.5583 4.81903 15.4528
252 2 1.008 13.1012 3.51659 14.6903
253 1 15.9994 10.47 0.829306 14.6193
254 2 1.008 9.99793 1.15169 13.8192
255 2 1.008 9.59953 1.39895 16.065
256 1 15.9994 10.5019 5.4431 14.623
257 2 1.008 10.0551 5.12564 13.8065
258 2 1.008 11.4197 5.09002 14.6038
259 1 15.9994 13.0388 1.81652 10.1421
260 2 1.008 13.8685 1.24902 11.6053
261 2 1.008 13.8932 1.20426 13.1823
262 1 15.9994 13.0753 1.73796 14.6742
263 2 1.008 13.5115 1.38646 15.4819
264 2 1.008 12.1528 1.39578 14.6799
265 1 15.9994 9.1898 4.5145 16.8611
266 2 1.008 9.19158 3.53113 16.8339
267 2 1.008 9.66083 4.81872 16.0525
268 1 15.9994 9.15698 4.55915 12.3799
269 2 1.008 8.23796 4.90759 12.3803
270 2 1.008 9.5817 4.87872 11.5524
271 1 15.9994 10.4438 5.43649 10.1034
272 2 1.008 10.0226 5.09003 9.28505
273 2 1.008 11.3761 5.12377 10.0949
274 1 15.9994 10.445 0.899286 10.1385
275 2 1.008 10.4663 7.21743 10.1324
276 2 1.008 11.395 8.48908 10.1611
277 1 15.9994 14.3644 0.893994 12.3769
278 2 1.008 13.9024 1.12064 17.7429
279 2 1.008 15.3189 5.14968 16.9276
280 1 15.9994 14.3746 0.812162 16.9364
281 2 1.008 14.4023 6.4327 16.899
282 2 1.008 13.9256 8.56414 16.0926
283 1 15.9994 14.3824 5.45028 16.907
284 2 1.008 15.2871 8.57421 16.879
285 2 1.008 13.5526 8.82602 13.8258
286 1 15.9994 9.16204 1.75237 16.8715
287 2 1.008 6.59886 7.2212 16.8979
288 2 1.008 10.51 7.22518 14.6596
289 1 15.9994 1.35378 9.13573 12.3725
290 2 1.008 1.82905 8.8357 11.5657
291 2 1.008 1.35095 10.1187 12.3565
292 1 15.9994 5.23634 11.8874 10.1598
293 2 1.008 5.66347 12.2339 10.9748
294 2 1.008 4.30954 12.2167 10.1682
295 1 15.9994 6.51436 12.8155 12.4259
296 2 1.008 6.03818 12.5167 13.2333
297 2 1.008 6.51299 13.7983 12.4426
298 1 15.9994 5.19919 11.8915 14.6706
299 2 1.008 5.18464 10.9088 14.6646
300 2 1.008 4.26129 12.1898 14.6748
301 1 15.9994 2.61877 8.21511 14.6535
302 2 1.008 2.19246 8.55197 13.8343
303 2 1.008 3.5483 8.53565 14.6363
304 1 15.9994 2.60469 12.8102 14.6759
305 2 1.008 2.60444 13.7933 14.6911
306 2 1.008 2.13657 12.5203 15.4918
307 1 15.9994 5.25904 9.12595 10.1209
308 2 1.008 5.25688 10.1095 10.1162
309 2 1.008 5.73215 8.84241 9.30624
310 1 15.9994 5.22834 9.12281 14.6638
311 2 1.008 5.71889 8.78368 15.4456
312 2 1.008 5.71099 8.80176 13.8695
313 1 15.9994 1.32051 11.9137 16.9347
314 2 1.008 1.755 12.2508 17.7502
315 2 1.008 0.386306 12.2207 16.9638
316 1 15.9994 1.3203 11.9005 12.4052
317 2 1.008 0.399592 12.2466 12.4199
318 2 1.008 1.75602 12.2342 13.221
319 1 15.9994 2.62698 12.7912 10.1411
320 2 1.008 2.14078 12.4735 10.9347
321 2 1.008 2.14648 12.4449 9.35639
322 1 15.9994 2.65951 8.19303 10.1275
323 2 1.008 2.6844 7.21073 10.1475
324 2 1.008 3.5946 8.49859 10.1163
325 1 15.9994 6.53451 8.23019 12.4024
326 2 1.008 7.46445 8.54958 12.3809
327 2 1.008 6.10407 8.56107 11.5825
328 1 15.9994 6.55884 8.2041 16.9063
329 2 1.008 7.49161 8.5165 16.9128
330 2 1.008 9.63842 8.78378 17.7106
331 1 15.9994 6.51127 12.7883 16.9283
332 2 1.008 6.02198 12.4605 16.1404
333 2 1.008 6.02879 12.4482 17.7155
334 1 15.9994 1.31911 9.15057 16.8998
335 2 1.008 1.78921 8.85065 16.0897
336 2 1.008 1.34128 10.1336 16.8916
337 1 15.9994 9.14999 9.11282 12.4077
338 2 1.008 9.63744 8.76712 11.6255
339 2 1.008 9.62808 8.78241 13.2002
340 1 15.9994 13.0454 11.8652 10.1721
341 2 1.008 13.015 10.8825 10.1712
342 2 1.008 12.1145 12.1824 10.1811
343 1 15.9994 14.371 12.8351 12.3918
344 2 1.008 13.8951 12.5071 11.5961
345 2 1.008 14.3506 13.8171 12.3487
346 1 15.9994 13.0543 11.9114 14.6464
347 2 1.008 13.4995 12.2695 13.8467
348 2 1.008 12.1245 12.23 14.6153
349 1 15.9994 10.4718 8.20782 14.6764
350 2 1.008 11.4031 8.52267 14.6516
351 2 1.008 9.64986 8.78438 16.1357
352 1 15.9994 10.4279 12.7807 14.6306
353 2 1.008 9.94002 12.4343 13.8491
354 2 1.008 9.94441 12.457 15.4233
355 1 15.9994 13.0562 9.09947 10.1549
356 2 1.008 13.5562 8.76035 10.9311
357 2 1.008 15.3335 8.50582 12.3836
358 1 15.9994 13.0792 9.13723 14.6298
359 2 1.008 13.0817 10.1194 14.5968
360 2 1.008 14.4325 7.21185 12.4086
361 1 15.9994 9.11893 11.8912 16.8997
362 2 1.008 8.17789 12.1779 16.9092
363 2 1.008 9.11347 10.908 16.9106
364 1 15.9994 9.10732 11.8765 12.3895
365 2 1.008 8.17091 12.1773 12.4038
366 2 1.008 9.09391 10.8933 12.3846
367 1 15.9994 10.4664 12.8392 10.1805
368 2 1.008 10.4484 13.8221 10.2017
369 2 1.008 9.9684 12.528 10.9689
370 1 15.9994 10.4542 8.20018 10.1641
371 2 1.008 6.51887 14.5665 7.92253
372 2 1.008 10.438 14.5535 14.5894
373 1 15.9994 14.4006 8.19464 12.3895
374 2 1.008 13.8626 12.4421 16.1457
375 2 1.008 13.8524 12.409 17.7247
376 1 15.9994 14.3671 8.22642 16.9036
377 2 1.008 14.3479 14.5363 16.9605
378 2 1.008 6.51867 14.5698 16.9583
379 1 15.9994 14.3402 12.7579 16.9452
380 2 1.008 14.3332 14.5816 7.94309
381 2 1.008 14.3451 14.5636 3.38726
382 1 15.9994 9.16252 9.12427 16.9208
383 2 1.008 2.62251 14.576 10.0985
384 2 1.008 6.53687 14.5925 3.38308
ITEM: TIMESTEP
104
ITEM: NUMBER OF ATOMS
384
ITEM: BOX BOUNDS xy xz yz pp pp pp
0.0000000000000000e+00 1.5645677531129000e+01 0.0000000000000000e+00
0.0000000000000000e+00 1.4707145294364000e+01 0.0000000000000000e+00
0.0000000000000000e+00 1.8073037030847999e+01 0.0000000000000000e+00
ITEM: ATOMS id type mass x y z
1 1 15.9994 1.31658 1.78855 3.3344
2 2 1.008 1.27671 2.78548 3.32012
3 2 1.008 0.399381 1.47096 3.3316
4 1 15.9994 5.28617 4.57598 1.11164
5 2 1.008 5.75059 4.94077 1.90752
6 2 1.008 5.78448 4.89445 0.319283
7 1 15.9994 6.5259 5.51793 3.37769
8 2 1.008 6.06009 5.21963 4.20301
9 2 1.008 6.50106 6.51116 3.38537
10 1 15.9994 5.24008 4.55904 5.6449
11 2 1.008 4.33833 4.8931 5.67032
12 2 1.008 5.70308 4.89693 6.44884
13 1 15.9994 2.6225 0.878625 5.58514
14 2 1.008 2.19306 1.20476 4.75177
15 2 1.008 3.52797 1.21706 5.58064
16 1 15.9994 2.62262 5.47051 5.62506
17 2 1.008 2.60579 6.44194 5.65472
18 2 1.008 2.14946 5.16038 6.46246
19 1 15.9994 5.25929 1.80129 1.11609
20 2 1.008 5.28131 2.80987 1.13314
21 2 1.008 5.70881 1.48964 1.93856
22 1 15.9994 5.24205 1.79039 5.62694
23 2 1.008 5.70005 1.47037 6.45976
24 2 1.008 5.25925 2.76723 5.65598
25 1 15.9994 1.34771 4.53231 7.89825
26 2 1.008 1.34928 3.55516 7.90074
27 2 1.008 1.79666 4.83269 8.72561
28 1 15.9994 1.3389 4.54344 3.35806
29 2 1.008 1.84425 4.87121 2.56981
30 2 1.008 1.77546 4.88954 4.15493
31 1 15.9994 2.66466 5.43979 1.11802
32 2 1.008 2.65351 6.41806 1.09901
33 2 1.008 3.6124 5.18941 1.07238
34 1 15.9994 2.64953 0.877381 1.10273
35 2 1.008 2.19068 1.21662 1.89469
36 2 1.008 3.54418 1.23028 1.12095
37 1 15.9994 6.54295 0.862376 3.37967
38 2 1.008 6.08916 1.15184 4.20173
39 2 1.008 8.23122 1.5206 3.34741
40 1 15.9994 6.5181 0.839114 7.88487
41 2 1.008 6.05557 1.17088 8.68454
42 2 1.008 8.22911 1.39388 7.84886
43 1 15.9994 6.5672 5.49004 7.89339
44 2 1.008 7.49727 5.16916 7.86037
45 2 1.008 6.60435 6.47992 7.90235
46 1 15.9994 1.31132 1.75373 7.86085
47 2 1.008 1.74191 1.4458 7.03624
48 2 1.008 0.381119 1.41233 7.87373
49 1 15.9994 9.13671 1.81585 3.32225
50 2 1.008 9.08123 2.7966 3.31574
51 2 1.008 9.9584 1.20618 1.86079
52 1 15.9994 13.0653 4.51689 1.06815
53 2 1.008 13.0876 3.51401 1.06707
54 2 1.008 13.5201 4.82455 0.26651
55 1 15.9994 14.3744 5.43847 3.3317
56 2 1.008 15.2731 5.11345 3.31397
57 2 1.008 13.9234 5.07627 2.5105
58 1 15.9994 13.0704 4.54548 5.60003
59 2 1.008 13.4885 4.87299 4.7711
60 2 1.008 12.1691 4.86282 5.59209
61 1 15.9994 10.451 0.887781 5.56316
62 2 1.008 9.99499 1.256 4.7505
63 2 1.008 11.3833 1.20929 5.57064
64 1 15.9994 10.4506 5.45202 5.58514
65 2 1.008 10.0049 5.19288 4.78297
66 2 1.008 10.4487 6.41961 5.60161
67 1 15.9994 13.074 1.74812 1.10267
68 2 1.008 12.1322 1.40721 1.11738
69 2 1.008 13.4932 1.3973 1.89384
70 1 15.9994 13.0739 1.77764 5.62818
71 2 1.008 13.5084 1.46537 6.43386
72 2 1.008 13.0919 2.76321 5.66998
73 1 15.9994 9.16361 4.51543 7.83561
74 2 1.008 9.14146 3.51959 7.79827
75 2 1.008 9.63159 4.79057 7.05022
76 1 15.9994 9.13278 4.58223 3.32279
77 2 1.008 8.21548 4.94271 3.29953
78 2 1.008 9.57601 4.87774 2.52651
79 1 15.9994 10.4503 5.41993 1.05478
80 2 1.008 10.0305 5.08414 0.223058
81 2 1.008 11.3927 5.07416 1.06951
82 1 15.9994 10.4463 0.880515 1.08683
83 2 1.008 10.0018 1.20708 0.279092
84 2 1.008 13.8995 1.14224 4.19305
85 1 15.9994 14.3616 0.838181 3.37499
86 2 1.008 13.8668 1.17142 8.70699
87 2 1.008 13.9275 5.1204 7.03816
88 1 15.9994 14.3513 0.854629 7.90212
89 2 1.008 13.0218 2.8223 10.123
90 2 1.008 12.0938 1.54488 10.1233
91 1 15.9994 14.3884 5.45567 7.8584
92 2 1.008 15.31 5.112 7.83708
93 2 1.008 14.3162 7.23307 7.83561
94 1 15.9994 9.13859 1.74166 7.8521
95 2 1.008 9.57224 1.42348 7.02831
96 2 1.008 9.94713 1.19085 9.3167
97 1 15.9994 1.34875 9.13187 3.37248
98 2 1.008 1.80529 8.80042 4.17276
99 2 1.008 1.35037 10.1218 3.37809
100 1 15.9994 5.22139 11.8762 1.11371
101 2 1.008 5.16865 10.9012 1.07778
102 2 1.008 4.2829 12.1749 1.14061
103 1 15.9994 6.55925 12.8064 3.35218
104 2 1.008 7.48493 12.4582 3.31534
105 2 1.008 6.07594 12.4401 2.55506
106 1 15.9994 5.24593 11.927 5.62911
107 2 1.008 5.72828 12.2233 6.40283
108 2 1.008 5.73067 12.2753 4.84798
109 1 15.9994 2.64094 8.23454 5.62724
110 2 1.008 3.58472 8.57035 5.66353
111 2 1.008 2.19309 8.57557 6.4547
112 1 15.9994 2.62833 12.8171 5.63752
113 2 1.008 2.65021 13.8092 5.62298
114 2 1.008 3.58041 12.5261 5.65828
115 1 15.9994 5.22766 9.11057 1.08227
116 2 1.008 4.31231 8.77337 1.05451
117 2 1.008 5.65634 8.77397 0.277611
118 1 15.9994 5.24032 9.16756 5.62437
119 2 1.008 5.69108 8.88731 4.81507
120 2 1.008 5.24161 10.1545 5.62519
121 1 15.9994 1.30993 11.8776 7.88563
122 2 1.008 1.33006 10.899 7.8461
123 2 1.008 1.78481 12.2138 7.07293
124 1 15.9994 1.32759 11.9039 3.37866
125 2 1.008 0.415653 12.2314 3.40609
126 2 1.008 1.76577 12.2617 4.20151
127 1 15.9994 2.61395 12.8135 1.1144
128 2 1.008 2.60742 13.7952 1.15566
129 2 1.008 2.14815 12.5278 1.92257
130 1 15.9994 2.61062 8.20283 1.08545
131 2 1.008 2.12292 8.555 0.29499
132 2 1.008 2.15249 8.52971 1.91391
133 1 15.9994 6.53968 8.2705 3.3637
134 2 1.008 7.45965 8.59101 3.32672
135 2 1.008 6.09411 8.59397 2.53218
136 1 15.9994 6.56691 8.25473 7.86524
137 2 1.008 6.12318 8.6014 7.05341
138 2 1.008 7.49572 8.55884 7.83385
139 1 15.9994 6.5628 12.7816 7.90724
140 2 1.008 6.11434 12.4696 8.72008
141 2 1.008 7.49747 12.4571 7.94661
142 1 15.9994 1.32341 9.1157 7.89493
143 2 1.008 0.398214 8.77054 7.90609
144 2 1.008 1.77207 8.75871 8.69843
145 1 15.9994 9.16106 9.10995 3.34908
146 2 1.008 9.62608 8.7426 2.57787
147 2 1.008 9.63041 8.79236 4.16116
148 1 15.9994 13.0337 11.8457 1.11881
149 2 1.008 13.0079 10.8857 1.15674
150 2 1.008 12.087 12.1412 1.09206
151 1 15.9994 14.3564 12.7732 3.37528
152 2 1.008 13.8667 12.453 4.16033
153 2 1.008 13.8766 12.4292 2.59611
154 1 15.9994 13.039 11.902 5.64099
155 2 1.008 12.1182 12.2528 5.67438
156 2 1.008 13.4753 12.2341 6.45916
157 1 15.9994 10.4638 8.21924 5.6351
158 2 1.008 11.3962 8.53454 5.62156
159 2 1.008 10.0286 8.54158 6.43407
160 1 15.9994 10.4361 12.8316 5.61445
161 2 1.008 9.9906 12.5129 4.7819
162 2 1.008 10.4271 13.8229 5.57118
163 1 15.9994 13.0527 9.08033 1.09923
164 2 1.008 13.5291 8.79047 0.311775
165 2 1.008 13.5389 8.74825 1.87365
166 1 15.9994 13.0702 9.13879 5.60375
167 2 1.008 13.5418 8.84863 4.79017
168 2 1.008 13.0995 10.1305 5.61861
169 1 15.9994 9.18644 11.9093 7.90104
170 2 1.008 9.64113 12.2402 7.11729
171 2 1.008 9.66571 12.2476 8.69053
172 1 15.9994 9.1554 11.8716 3.34101
173 2 1.008 9.18014 10.9141 3.32645
174 2 1.008 9.62941 12.1858 2.50871
175 1 15.9994 10.443 12.8051 1.06888
176 2 1.008 9.96081 12.4969 0.26586
177 2 1.008 10.4375 13.7883 1.04828
178 1 15.9994 10.4541 8.17777 1.11115
179 2 1.008 10.4821 7.21745 1.11122
180 2 1.008 11.3934 8.47182 1.12433
181 1 15.9994 14.3797 8.20544 3.3553
182 2 1.008 14.4 7.19505 3.35044
183 2 1.008 15.3159 8.52451 3.38371
184 1 15.9994 14.3428 8.21051 7.88741
185 2 1.008 13.9273 8.53781 7.05381
186 2 1.008 13.5372 8.78555 9.36963
187 1 15.9994 14.3433 12.8004 7.92445
188 2 1.008 13.9275 12.4207 8.71879
189 2 1.008 15.2512 12.4492 7.92244
190 1 15.9994 9.16448 9.15005 7.89805
191 2 1.008 9.20532 10.1575 7.96163
192 2 1.008 9.62991 8.82754 8.73117
193 1 15.9994 1.3369 1.74598 12.3924
194 2 1.008 1.75061 1.42605 11.5829
195 2 1.008 0.41617 1.44218 12.3507
196 1 15.9994 5.27095 4.54404 10.1451
197 2 1.008 5.73008 4.88294 10.9472
198 2 1.008 5.76891 4.90164 9.34924
199 1 15.9994 6.54579 5.47572 12.4094
200 2 1.008 6.09101 5.17028 13.2049
201 2 1.008 6.52934 6.47279 12.43
202 1 15.9994 5.23744 4.51972 14.6603
203 2 1.008 5.18885 3.5316 14.6601
204 2 1.008 4.307 4.83492 14.7032
205 1 15.9994 2.63568 0.865503 14.6655
206 2 1.008 2.12945 1.19639 15.4765
207 2 1.008 2.14078 1.21198 13.8965
208 1 15.9994 2.63127 5.43737 14.6997
209 2 1.008 2.59528 6.42037 14.7049
210 2 1.008 2.15166 5.14681 15.5007
211 1 15.9994 5.23287 1.77862 10.1494
212 2 1.008 4.29202 1.4907 10.1317
213 2 1.008 5.23731 2.77075 10.1391
214 1 15.9994 5.24001 1.75254 14.6731
215 2 1.008 5.7066 1.42612 15.4679
216 2 1.008 4.30255 1.42372 14.674
217 1 15.9994 1.33555 4.51651 16.9538
218 2 1.008 1.33337 3.52726 16.9768
219 2 1.008 1.82926 4.82718 17.7701
220 1 15.9994 1.37281 4.50311 12.4187
221 2 1.008 1.36897 3.51264 12.4016
222 2 1.008 1.85187 4.85805 13.2335
223 1 15.9994 2.64886 5.42642 10.1473
224 2 1.008 2.22022 5.11117 10.9652
225 2 1.008 3.58983 5.1393 10.1624
226 1 15.9994 2.63507 0.854607 10.1112
227 2 1.008 2.16079 1.15382 9.31036
228 2 1.008 6.06185 1.226 11.6282
229 1 15.9994 6.54538 0.88083 12.3999
230 2 1.008 6.06166 1.21548 13.2195
231 2 1.008 8.20499 1.46035 12.3904
232 1 15.9994 6.55665 0.841486 16.925
233 2 1.008 6.14396 1.16771 17.7471
234 2 1.008 8.23327 1.40189 16.8611
235 1 15.9994 6.5943 5.44326 16.8997
236 2 1.008 6.10868 5.07778 16.1076
237 2 1.008 7.52802 5.10708 16.8733
238 1 15.9994 1.32187 1.75042 16.9203
239 2 1.008 0.400272 1.398 16.9266
240 2 1.008 1.77932 1.38789 17.7195
241 1 15.9994 9.13557 1.7931 12.3936
242 2 1.008 9.12098 2.7874 12.4004
243 2 1.008 9.92109 1.23662 10.9115
244 1 15.9994 13.0666 4.58366 10.1198
245 2 1.008 13.5567 4.91872 10.9214
246 2 1.008 13.5625 4.92557 9.31189
247 1 15.9994 14.414 5.43021 12.3955
248 2 1.008 15.3349 5.09293 12.4246
249 2 1.008 13.9435 5.05293 13.208
250 1 15.9994 13.0993 4.50136 14.6449
251 2 1.008 13.5355 4.82813 15.4519
252 2 1.008 13.111 3.52054 14.671
253 1 15.9994 10.4725 0.824271 14.6203
254 2 1.008 10.0082 1.15734 13.8076
255 2 1.008 9.59246 1.37634 16.0512
256 1 15.9994 10.5029 5.4393 14.6211
257 2 1.008 10.0472 5.12226 13.8101
258 2 1.008 11.4113 5.1036 14.5835
259 1 15.9994 13.0432 1.81628 10.1419
260 2 1.008 13.8522 1.25231 11.6439
261 2 1.008 13.9008 1.22903 13.1857
262 1 15.9994 13.0788 1.73653 14.6749
263 2 1.008 13.5311 1.36334 15.4958
264 2 1.008 12.1722 1.4147 14.6832
265 1 15.9994 9.18905 4.51629 16.8693
266 2 1.008 9.17392 3.53496 16.8073
267 2 1.008 9.65809 4.83485 16.0323
268 1 15.9994 9.16104 4.55929 12.3813
269 2 1.008 8.2624 4.88304 12.3809
270 2 1.008 9.60446 4.85959 11.5407
271 1 15.9994 10.4437 5.43401 10.1064
272 2 1.008 10.0372 5.09368 9.28443
273 2 1.008 11.3858 5.11876 10.1226
274 1 15.9994 10.4434 0.898699 10.1356
275 2 1.008 10.4619 7.19933 10.1423
276 2 1.008 11.3877 8.47971 10.1647
277 1 15.9994 14.3648 0.890629 12.3734
278 2 1.008 13.8971 1.12228 17.7484
279 2 1.008 15.3552 5.14646 16.9124
280 1 15.9994 14.3737 0.81329 16.9323
281 2 1.008 14.4056 6.44051 16.9135
282 2 1.008 13.9026 8.55935 16.1094
283 1 15.9994 14.3887 5.45318 16.904
284 2 1.008 15.2906 8.57047 16.8915
285 2 1.008 13.5744 8.83884 13.8532
286 1 15.9994 9.15637 1.75215 16.869
287 2 1.008 6.58495 7.20807 16.9016
288 2 1.008 10.5129 7.21906 14.6704
289 1 15.9994 1.35648 9.13128 12.3771
290 2 1.008 1.84191 8.84166 11.5701
291 2 1.008 1.34443 10.1107 12.3448
292 1 15.9994 5.23688 11.8794 10.1539
293 2 1.008 5.64898 12.2554 10.9949
294 2 1.008 4.30911 12.1983 10.178
295 1 15.9994 6.51488 12.8119 12.4226
296 2 1.008 6.04064 12.5256 13.2583
297 2 1.008 6.5133 13.7978 12.423
298 1 15.9994 5.19891 11.8913 14.6697
299 2 1.008 5.18653 10.9043 14.6713
300 2 1.008 4.28489 12.1767 14.6908
301 1 15.9994 2.61419 8.20811 14.6512
302 2 1.008 2.18711 8.55226 13.8373
303 2 1.008 3.53849 8.5184 14.6338
304 1 15.9994 2.60751 12.8094 14.678
305 2 1.008 2.60402 13.8005 14.7147
306 2 1.008 2.10507 12.5129 15.482
307 1 15.9994 5.26808 9.12183 10.1263
308 2 1.008 5.27017 10.128 10.0971
309 2 1.008 5.69716 8.85031 9.32271
310 1 15.9994 5.22612 9.12042 14.6591
311 2 1.008 5.70682 8.77642 15.4291
312 2 1.008 5.6968 8.79765 13.8687
313 1 15.9994 1.32316 11.9195 16.9307
314 2 1.008 1.74238 12.2654 17.753
315 2 1.008 0.395361 12.2215 16.9612
316 1 15.9994 1.32217 11.9007 12.404
317 2 1.008 0.391401 12.2873 12.4171
318 2 1.008 1.77892 12.2365 13.2182
319 1 15.9994 2.63037 12.7935 10.1404
320 2 1.008 2.13926 12.4922 10.8991
321 2 1.008 2.12122 12.4633 9.34378
322 1 15.9994 2.65514 8.18929 10.125
323 2 1.008 2.67655 7.23116 10.1456
324 2 1.008 3.59807 8.47435 10.117
325 1 15.9994 6.53303 8.23271 12.4029
326 2 1.008 7.45528 8.55933 12.3976
327 2 1.008 6.0962 8.54326 11.609
328 1 15.9994 6.55862 8.20364 16.9024
329 2 1.008 7.48577 8.5021 16.9181
330 2 1.008 9.61698 8.79387 17.7018
331 1 15.9994 6.51463 12.7904 16.9286
332 2 1.008 6.0288 12.4609 16.1542
333 2 1.008 6.03738 12.4398 17.7249
334 1 15.9994 1.31659 9.14935 16.9033
335 2 1.008 1.78166 8.86106 16.0953
336 2 1.008 1.35676 10.128 16.8898
337 1 15.9994 9.15895 9.11487 12.4044
338 2 1.008 9.65569 8.75974 11.639
339 2 1.008 9.61339 8.77922 13.2221
340 1 15.9994 13.0425 11.867 10.174
341 2 1.008 13.0126 10.8889 10.1837
342 2 1.008 12.1153 12.1886 10.1819
343 1 15.9994 14.3692 12.8427 12.3915
344 2 1.008 13.9012 12.4904 11.6001
345 2 1.008 14.3545 13.8077 12.3422
346 1 15.9994 13.0531 11.9152 14.647
347 2 1.008 13.4802 12.2935 13.8321
348 2 1.008 12.1008 12.227 14.5967
349 1 15.9994 10.4709 8.19977 14.6738
350 2 1.008 11.4184 8.53078 14.6507
351 2 1.008 9.66248 8.78099 16.1272
352 1 15.9994 10.4275 12.7875 14.6377
353 2 1.008 9.94022 12.4395 13.8356
354 2 1.008 9.95158 12.4403 15.4245
355 1 15.9994 13.0542 9.10207 10.1555
356 2 1.008 13.5407 8.74605 10.933
357 2 1.008 15.3455 8.50649 12.3776
358 1 15.9994 13.0758 9.13861 14.6296
359 2 1.008 13.1123 10.1319 14.6227
360 2 1.008 14.4232 7.18907 12.4023
361 1 15.9994 9.11758 11.893 16.9005
362 2 1.008 8.17856 12.1584 16.9466
363 2 1.008 9.11563 10.9135 16.9218
364 1 15.9994 9.10911 11.8771 12.3906
365 2 1.008 8.15836 12.1863 12.397
366 2 1.008 9.07768 10.9041 12.3746
367 1 15.9994 10.4645 12.833 10.1797
368 2 1.008 10.4338 13.8171 10.2177
369 2 1.008 9.94636 12.5255 10.954
370 1 15.9994 10.4549 8.19908 10.1679
371 2 1.008 6.52894 14.5645 7.92357
372 2 1.008 10.4335 14.5396 14.5799
373 1 15.9994 14.4047 8.19725 12.3901
374 2 1.008 13.8622 12.4249 16.1681
375 2 1.008 13.8776 12.4493 17.7037
376 1 15.9994 14.3621 8.22743 16.8993
377 2 1.008 14.3457 14.5222 16.9594
378 2 1.008 6.52587 14.5848 16.9986
379 1 15.9994 14.3414 12.7589 16.942
380 2 1.008 14.3327 14.5772 7.94419
381 2 1.008 14.3405 14.5836 3.38348
382 1 15.9994 9.16492 9.12656 16.921
383 2 1.008 2.62801 14.5671 10.0965
384 2 1.008 6.54408 14.5833 3.39917
ITEM: TIMESTEP
105
ITEM: NUMBER OF ATOMS
384
ITEM: BOX BOUNDS xy xz yz pp pp pp
0.0000000000000000e+00 1.5645677531129000e+01 0.0000000000000000e+00
0.0000000000000000e+00 1.4707145294364000e+01 0.0000000000000000e+00
0.0000000000000000e+00 1.8073037030847999e+01 0.0000000000000000e+00
ITEM: ATOMS id type mass x y z
1 1 15.9994 1.31836 1.78428 3.33982
2 2 1.008 1.27129 2.79009 3.2994
3 2 1.008 0.409608 1.4642 3.3235
4 1 15.9994 5.28877 4.57564 1.11921
5 2 1.008 5.7563 4.9503 1.91539
6 2 1.008 5.78854 4.89177 0.32355
7 1 15.9994 6.52728 5.52038 3.37452
8 2 1.008 6.05847 5.24038 4.21331
9 2 1.008 6.49526 6.52096 3.35937
10 1 15.9994 5.24347 4.55959 5.64708
11 2 1.008 4.35694 4.89955 5.67131
12 2 1.008 5.72126 4.89044 6.44869
13 1 15.9994 2.61815 0.88306 5.58285
14 2 1.008 2.19633 1.1951 4.73282
15 2 1.008 3.51729 1.21364 5.57875
16 1 15.9994 2.62488 5.4725 5.62258
17 2 1.008 2.59734 6.43764 5.6521
18 2 1.008 2.14197 5.16332 6.47647
19 1 15.9994 5.25716 1.79876 1.12228
20 2 1.008 5.27132 2.82409 1.1378
21 2 1.008 5.69652 1.48552 1.95254
22 1 15.9994 5.2425 1.79053 5.62713
23 2 1.008 5.70838 1.46995 6.47111
24 2 1.008 5.25806 2.76414 5.65181
25 1 15.9994 1.35504 4.53715 7.90071
26 2 1.008 1.35197 3.5637 7.89677
27 2 1.008 1.78585 4.8469 8.73903
28 1 15.9994 1.34213 4.5361 3.35906
29 2 1.008 1.84828 4.85883 2.56376
30 2 1.008 1.75476 4.8922 4.15888
31 1 15.9994 2.6623 5.4355 1.12367
32 2 1.008 2.64234 6.41104 1.09988
33 2 1.008 3.61489 5.21053 1.04483
34 1 15.9994 2.64695 0.878712 1.10251
35 2 1.008 2.18647 1.20963 1.8917
36 2 1.008 3.52652 1.24128 1.11222