ITEM: TIMESTEP
10
ITEM: NUMBER OF ATOMS
384
ITEM: BOX BOUNDS xy xz yz pp pp pp
0.0000000000000000e+00 1.5645677531129000e+01 0.0000000000000000e+00
0.0000000000000000e+00 1.4707145294364000e+01 0.0000000000000000e+00
0.0000000000000000e+00 1.8073037030847999e+01 0.0000000000000000e+00
ITEM: ATOMS id type mass x y z
1 1 15.9994 1.37993 1.7492 3.37937
2 2 1.008 1.32475 2.72773 3.32593
3 2 1.008 0.486361 1.47073 3.35441
4 1 15.9994 5.20189 4.47215 1.11941
5 2 1.008 5.68356 4.8255 1.88018
6 2 1.008 5.68381 4.8044 0.352406
7 1 15.9994 6.58652 5.39112 3.30206
8 2 1.008 6.11891 5.13553 4.11854
9 2 1.008 6.54338 6.36465 3.29877
10 1 15.9994 5.28011 4.48905 5.56892
11 2 1.008 4.42891 4.84261 5.59185
12 2 1.008 5.73284 4.81567 6.35739
13 1 15.9994 2.58109 0.8433 5.6693
14 2 1.008 2.17481 1.16093 4.83392
15 2 1.008 3.46055 1.15993 5.63255
16 1 15.9994 2.69142 5.43772 5.55637
17 2 1.008 2.63971 6.37323 5.58738
18 2 1.008 2.19893 5.15008 6.38941
19 1 15.9994 5.19344 1.70761 1.07999
20 2 1.008 5.20364 2.71361 1.10654
21 2 1.008 5.63164 1.42737 1.89531
22 1 15.9994 5.19825 1.73279 5.57575
23 2 1.008 5.67281 1.44605 6.4018
24 2 1.008 5.22662 2.67691 5.60012
25 1 15.9994 1.33659 4.61918 7.82023
26 2 1.008 1.33561 3.67283 7.84051
27 2 1.008 1.75883 4.91032 8.64
28 1 15.9994 1.30194 4.50456 3.3604
29 2 1.008 1.78669 4.82734 2.5794
30 2 1.008 1.73287 4.85719 4.11571
31 1 15.9994 2.59905 5.40792 1.11237
32 2 1.008 2.62095 6.3532 1.11046
33 2 1.008 3.52441 5.1771 1.04613
34 1 15.9994 2.58474 0.820773 1.07495
35 2 1.008 2.16776 1.1456 1.84804
36 2 1.008 3.43819 1.16085 1.08843
37 1 15.9994 6.54312 0.854061 3.33439
38 2 1.008 6.1091 1.12356 4.14062
39 2 1.008 8.33328 1.52088 3.36588
40 1 15.9994 6.53227 0.880526 7.82587
41 2 1.008 6.07089 1.1848 8.60199
42 2 1.008 8.30562 1.48671 7.91479
43 1 15.9994 6.50643 5.41974 7.86254
44 2 1.008 7.42665 5.1519 7.85241
45 2 1.008 6.53673 6.39178 7.90483
46 1 15.9994 1.34542 1.84179 7.91375
47 2 1.008 1.76012 1.51828 7.11565
48 2 1.008 0.443842 1.48057 7.93022
49 1 15.9994 9.2016 1.75544 3.35915
50 2 1.008 9.13197 2.70463 3.34922
51 2 1.008 10.0103 1.1202 1.8801
52 1 15.9994 13.0483 4.55629 1.14285
53 2 1.008 13.0636 3.56482 1.13969
54 2 1.008 13.4752 4.82804 0.352715
55 1 15.9994 14.3717 5.46401 3.40157
56 2 1.008 15.2225 5.13814 3.3629
57 2 1.008 13.9245 5.08082 2.5958
58 1 15.9994 13.0986 4.50416 5.65974
59 2 1.008 13.4815 4.82868 4.84372
60 2 1.008 12.2456 4.81586 5.65149
61 1 15.9994 10.4162 0.848223 5.66554
62 2 1.008 9.96684 1.19405 4.85876
63 2 1.008 11.3301 1.1585 5.64547
64 1 15.9994 10.4977 5.43554 5.65299
65 2 1.008 10.0829 5.18533 4.89075
66 2 1.008 10.4715 6.35964 5.64132
67 1 15.9994 13.0781 1.78951 1.07597
68 2 1.008 12.1583 1.41505 1.10406
69 2 1.008 13.4723 1.42739 1.82164
70 1 15.9994 13.0162 1.73665 5.58711
71 2 1.008 13.4533 1.44421 6.35201
72 2 1.008 13.0539 2.69473 5.66615
73 1 15.9994 9.14213 4.60578 7.90262
74 2 1.008 9.12464 3.6299 7.8449
75 2 1.008 9.6148 4.83617 7.15971
76 1 15.9994 9.20333 4.51712 3.39724
77 2 1.008 8.30125 4.85096 3.32277
78 2 1.008 9.62492 4.82159 2.64543
79 1 15.9994 10.4417 5.48659 1.14115
80 2 1.008 10.0433 5.16674 0.3196
81 2 1.008 11.3703 5.1333 1.14103
82 1 15.9994 10.4783 0.816886 1.12302
83 2 1.008 10.0436 1.16334 0.357357
84 2 1.008 13.8942 1.13408 4.14058
85 1 15.9994 14.3607 0.865084 3.34397
86 2 1.008 13.8837 1.14246 8.62672
87 2 1.008 13.9175 5.15689 7.09982
88 1 15.9994 14.369 0.880628 7.82983
89 2 1.008 13.0556 2.71089 10.1386
90 2 1.008 12.172 1.47454 10.1215
91 1 15.9994 14.3643 5.49351 7.90901
92 2 1.008 15.2677 5.16434 7.85106
93 2 1.008 14.3119 7.29666 7.87251
94 1 15.9994 9.17373 1.84622 7.92038
95 2 1.008 9.57898 1.51998 7.11428
96 2 1.008 9.99299 1.14335 9.35878
97 1 15.9994 1.30331 9.11454 3.34118
98 2 1.008 1.74372 8.7799 4.11237
99 2 1.008 1.32968 10.0859 3.33018
100 1 15.9994 5.3121 11.9023 1.10975
101 2 1.008 5.22527 10.9568 1.07092
102 2 1.008 4.38477 12.1665 1.13641
103 1 15.9994 6.52835 12.8138 3.39953
104 2 1.008 7.44006 12.496 3.3576
105 2 1.008 6.07557 12.44 2.60123
106 1 15.9994 5.19252 11.8305 5.6152
107 2 1.008 5.65421 12.1381 6.33731
108 2 1.008 5.66925 12.1998 4.86699
109 1 15.9994 2.5875 8.18953 5.57203
110 2 1.008 3.52038 8.50821 5.62946
111 2 1.008 2.17911 8.55582 6.39303
112 1 15.9994 2.6002 12.7825 5.6082
113 2 1.008 2.64214 13.7497 5.62241
114 2 1.008 3.54029 12.5065 5.66154
115 1 15.9994 5.24952 9.14089 1.17118
116 2 1.008 4.36173 8.81789 1.12418
117 2 1.008 5.62458 8.81693 0.374543
118 1 15.9994 5.20123 9.07768 5.66693
119 2 1.008 5.63001 8.81999 4.88394
120 2 1.008 5.21031 10.0467 5.66063
121 1 15.9994 1.31428 11.9645 7.9103
122 2 1.008 1.33472 11.017 7.85624
123 2 1.008 1.77436 12.2776 7.10132
124 1 15.9994 1.37961 11.8746 3.30692
125 2 1.008 0.516273 12.2168 3.34409
126 2 1.008 1.78466 12.2456 4.12167
127 1 15.9994 2.684 12.7659 1.0391
128 2 1.008 2.61693 13.7183 1.0986
129 2 1.008 2.22113 12.4994 1.81912
130 1 15.9994 2.67064 8.17385 1.12211
131 2 1.008 2.18842 8.52664 0.354749
132 2 1.008 2.20672 8.48808 1.93349
133 1 15.9994 6.49894 8.13976 3.41287
134 2 1.008 7.36674 8.50103 3.3703
135 2 1.008 6.06847 8.49554 2.60156
136 1 15.9994 6.47678 8.17806 7.92514
137 2 1.008 6.04805 8.53213 7.13889
138 2 1.008 7.38998 8.45022 7.85354
139 1 15.9994 6.53379 12.8384 7.82152
140 2 1.008 6.12884 12.5449 8.61955
141 2 1.008 7.45199 12.5075 7.86712
142 1 15.9994 1.35361 9.19868 7.82306
143 2 1.008 0.459928 8.84521 7.84716
144 2 1.008 1.77011 8.8361 8.6213
145 1 15.9994 9.08967 9.19515 3.36254
146 2 1.008 9.52901 8.83473 2.61837
147 2 1.008 9.55828 8.86563 4.14778
148 1 15.9994 13.1312 11.8956 1.09274
149 2 1.008 13.0895 10.9811 1.17134
150 2 1.008 12.1927 12.1477 1.08158
151 1 15.9994 14.4478 12.8094 3.35221
152 2 1.008 13.9584 12.4856 4.09095
153 2 1.008 13.978 12.468 2.60385
154 1 15.9994 13.0961 11.836 5.5532
155 2 1.008 12.1998 12.1959 5.62191
156 2 1.008 13.5064 12.1795 6.34891
157 1 15.9994 10.4036 8.20055 5.58052
158 2 1.008 11.322 8.48561 5.57465
159 2 1.008 9.98399 8.50467 6.34865
160 1 15.9994 10.5159 12.7893 5.64954
161 2 1.008 10.0575 12.5275 4.81626
162 2 1.008 10.4863 13.7603 5.64158
163 1 15.9994 12.9931 9.13554 1.11153
164 2 1.008 13.4532 8.84181 0.371149
165 2 1.008 13.4474 8.78558 1.85639
166 1 15.9994 13.0178 9.08895 5.66652
167 2 1.008 13.4715 8.82011 4.86745
168 2 1.008 13.0882 10.0607 5.68017
169 1 15.9994 9.1114 11.8859 7.84956
170 2 1.008 9.59321 12.1895 7.11982
171 2 1.008 9.60195 12.1821 8.62662
172 1 15.9994 9.13268 11.9417 3.40408
173 2 1.008 9.14639 11.0258 3.37708
174 2 1.008 9.6074 12.2236 2.57121
175 1 15.9994 10.5099 12.7592 1.14561
176 2 1.008 10.0483 12.4567 0.357799
177 2 1.008 10.488 13.7213 1.10485
178 1 15.9994 10.3827 8.24429 1.12305
179 2 1.008 10.4389 7.32379 1.16262
180 2 1.008 11.2986 8.5311 1.14987
181 1 15.9994 14.2745 8.21855 3.37776
182 2 1.008 14.332 7.20785 3.37082
183 2 1.008 15.1853 8.53894 3.40814
184 1 15.9994 14.3566 8.2421 7.92886
185 2 1.008 13.961 8.54041 7.09827
186 2 1.008 13.4959 8.83041 9.41747
187 1 15.9994 14.3489 12.8403 7.81574
188 2 1.008 13.9769 12.4604 8.58776
189 2 1.008 15.2212 12.4948 7.83716
190 1 15.9994 9.10387 9.12374 7.82168
191 2 1.008 9.15643 10.1225 7.92229
192 2 1.008 9.56481 8.83297 8.66256
193 1 15.9994 1.3475 1.83227 12.4553
194 2 1.008 1.73109 1.51798 11.6717
195 2 1.008 0.475794 1.50404 12.405
196 1 15.9994 5.19746 4.4751 10.1478
197 2 1.008 5.6625 4.80331 10.9181
198 2 1.008 5.70094 4.82745 9.36121
199 1 15.9994 6.59122 5.39691 12.3358
200 2 1.008 6.16109 5.13765 13.1178
201 2 1.008 6.57742 6.37991 12.3577
202 1 15.9994 5.29966 4.56183 14.6401
203 2 1.008 5.21722 3.59397 14.6404
204 2 1.008 4.39313 4.86623 14.6788
205 1 15.9994 2.67028 0.828498 14.6585
206 2 1.008 2.16721 1.16789 15.4649
207 2 1.008 2.17457 1.21758 13.9477
208 1 15.9994 2.69726 5.42605 14.6055
209 2 1.008 2.63602 6.38483 14.6396
210 2 1.008 2.20944 5.15476 15.3693
211 1 15.9994 5.27867 1.71412 10.1602
212 2 1.008 4.35362 1.45575 10.1609
213 2 1.008 5.27463 2.68939 10.1501
214 1 15.9994 5.25225 1.80108 14.6197
215 2 1.008 5.70934 1.48205 15.3811
216 2 1.008 4.33328 1.47871 14.6106
217 1 15.9994 1.32892 4.60929 16.8502
218 2 1.008 1.33103 3.64309 16.8995
219 2 1.008 1.81191 4.91651 17.6658
220 1 15.9994 1.32723 4.59077 12.3477
221 2 1.008 1.31786 3.62108 12.3336
222 2 1.008 1.8485 4.96155 13.1267
223 1 15.9994 2.62816 5.50105 10.0829
224 2 1.008 2.20484 5.20982 10.8681
225 2 1.008 3.54324 5.21191 10.1197
226 1 15.9994 2.64238 0.897838 10.2017
227 2 1.008 2.19037 1.18951 9.42121
228 2 1.008 6.1147 1.15995 11.667
229 1 15.9994 6.5738 0.789892 12.4036
230 2 1.008 6.1002 1.14937 13.2035
231 2 1.008 8.29308 1.4203 12.3922
232 1 15.9994 6.55107 0.875763 16.8645
233 2 1.008 6.17136 1.15558 17.6829
234 2 1.008 8.26765 1.49068 16.9213
235 1 15.9994 6.53045 5.47802 16.9452
236 2 1.008 6.08275 5.09684 16.1521
237 2 1.008 7.45004 5.16827 16.9323
238 1 15.9994 1.35654 1.85694 16.8678
239 2 1.008 0.456871 1.51886 16.8448
240 2 1.008 1.77187 1.46079 17.651
241 1 15.9994 9.19592 1.76418 12.4084
242 2 1.008 9.17124 2.74115 12.4096
243 2 1.008 9.96104 1.15489 10.9031
244 1 15.9994 13.0153 4.4725 10.1316
245 2 1.008 13.4918 4.83878 10.9069
246 2 1.008 13.5074 4.84082 9.33765
247 1 15.9994 14.3556 5.45994 12.3439
248 2 1.008 15.2547 5.15847 12.3961
249 2 1.008 13.8978 5.08122 13.155
250 1 15.9994 13.0466 4.56912 14.603
251 2 1.008 13.4712 4.85904 15.392
252 2 1.008 13.0762 3.61452 14.6054
253 1 15.9994 10.4655 0.902096 14.7123
254 2 1.008 10.0283 1.20076 13.8909
255 2 1.008 9.58023 1.46713 16.1413
256 1 15.9994 10.4557 5.5 14.6867
257 2 1.008 10.0184 5.16239 13.9055
258 2 1.008 11.3337 5.1864 14.6189
259 1 15.9994 13.1077 1.71158 10.1542
260 2 1.008 13.8897 1.13891 11.7165
261 2 1.008 13.933 1.17686 13.1715
262 1 15.9994 13.0794 1.80331 14.6127
263 2 1.008 13.5255 1.42672 15.4319
264 2 1.008 12.2165 1.51334 14.656
265 1 15.9994 9.14515 4.61397 16.9615
266 2 1.008 9.12493 3.66053 16.8677
267 2 1.008 9.59912 4.91522 16.1113
268 1 15.9994 9.20741 4.51873 12.4444
269 2 1.008 8.34397 4.80045 12.3972
270 2 1.008 9.65591 4.81898 11.622
271 1 15.9994 10.4544 5.48555 10.1898
272 2 1.008 10.0657 5.16967 9.38556
273 2 1.008 11.3653 5.13581 10.1927
274 1 15.9994 10.487 0.814921 10.1524
275 2 1.008 10.4185 7.25987 10.165
276 2 1.008 11.2891 8.51366 10.1612
277 1 15.9994 14.3918 0.783404 12.4022
278 2 1.008 13.8988 1.15965 17.6747
279 2 1.008 15.3166 5.13247 16.8719
280 1 15.9994 14.3628 0.884886 16.8609
281 2 1.008 14.3556 6.37324 16.9275
282 2 1.008 13.8581 8.49416 16.199
283 1 15.9994 14.3419 5.40957 16.8906
284 2 1.008 15.2132 8.50344 16.9483
285 2 1.008 13.5141 8.8255 13.9587
286 1 15.9994 9.16285 1.85252 16.9507
287 2 1.008 6.49919 7.25641 16.9158
288 2 1.008 10.4329 7.2967 14.6729
289 1 15.9994 1.3016 9.10506 12.4609
290 2 1.008 1.77679 8.83542 11.6638
291 2 1.008 1.30925 10.0539 12.389
292 1 15.9994 5.27629 11.8108 10.0856
293 2 1.008 5.66857 12.2 10.9248
294 2 1.008 4.3897 12.1429 10.1481
295 1 15.9994 6.58692 12.733 12.3388
296 2 1.008 6.13485 12.478 13.1837
297 2 1.008 6.55615 13.6926 12.3404
298 1 15.9994 5.30237 11.918 14.6445
299 2 1.008 5.25822 10.9566 14.6637
300 2 1.008 4.43451 12.1831 14.6723
301 1 15.9994 2.57974 8.17872 14.704
302 2 1.008 2.16657 8.53581 13.9167
303 2 1.008 3.46951 8.4919 14.6664
304 1 15.9994 2.69099 12.7843 14.6018
305 2 1.008 2.65532 13.7603 14.6737
306 2 1.008 2.17491 12.4899 15.3741
307 1 15.9994 5.21377 9.05939 10.2077
308 2 1.008 5.24731 10.0538 10.1321
309 2 1.008 5.58471 8.80024 9.4358
310 1 15.9994 5.16656 9.15489 14.6509
311 2 1.008 5.62875 8.80373 15.3884
312 2 1.008 5.62084 8.80903 13.9011
313 1 15.9994 1.3819 11.8998 16.8459
314 2 1.008 1.76152 12.2447 17.6579
315 2 1.008 0.497485 12.2218 16.896
316 1 15.9994 1.37919 11.8716 12.345
317 2 1.008 0.461889 12.2716 12.3789
318 2 1.008 1.83192 12.2137 13.1334
319 1 15.9994 2.71929 12.8475 10.1378
320 2 1.008 2.22237 12.5428 10.8249
321 2 1.008 2.17992 12.5517 9.35147
322 1 15.9994 2.55338 8.24045 10.1527
323 2 1.008 2.59257 7.32666 10.1441
324 2 1.008 3.48155 8.48438 10.1547
325 1 15.9994 6.48731 8.14752 12.4575
326 2 1.008 7.36092 8.50676 12.4492
327 2 1.008 6.05293 8.44807 11.7083
328 1 15.9994 6.46147 8.23397 16.9086
329 2 1.008 7.36322 8.50151 16.9142
330 2 1.008 9.5185 8.87603 17.6529
331 1 15.9994 6.6197 12.8382 16.8954
332 2 1.008 6.14564 12.4932 16.163
333 2 1.008 6.15225 12.4806 17.6691
334 1 15.9994 1.29229 9.12757 16.9628
335 2 1.008 1.73829 8.85766 16.1802
336 2 1.008 1.35474 10.0784 16.9127
337 1 15.9994 9.10929 9.19295 12.4004
338 2 1.008 9.60137 8.83035 11.6749
339 2 1.008 9.54229 8.84186 13.2016
340 1 15.9994 13.1218 11.9033 10.1458
341 2 1.008 13.0727 10.9601 10.1648
342 2 1.008 12.2129 12.1985 10.1426
343 1 15.9994 14.4052 12.7545 12.4351
344 2 1.008 13.9571 12.4313 11.647
345 2 1.008 14.3866 13.68 12.4018
346 1 15.9994 13.0959 11.8513 14.6941
347 2 1.008 13.4806 12.2147 13.8719
348 2 1.008 12.1634 12.1844 14.6229
349 1 15.9994 10.3826 8.25094 14.6589
350 2 1.008 11.3248 8.56187 14.6589
351 2 1.008 9.59588 8.85387 16.135
352 1 15.9994 10.5343 12.8737 14.656
353 2 1.008 10.0545 12.5342 13.8647
354 2 1.008 10.0662 12.4996 15.3996
355 1 15.9994 12.9896 9.14694 10.1552
356 2 1.008 13.447 8.77203 10.9121
357 2 1.008 15.2192 8.51573 12.3982
358 1 15.9994 13.0135 9.08764 14.7041
359 2 1.008 13.1028 10.0652 14.7093
360 2 1.008 14.3224 7.22435 12.3943
361 1 15.9994 9.22294 11.9668 16.8986
362 2 1.008 8.3096 12.2058 16.9605
363 2 1.008 9.19254 11.0203 16.9201
364 1 15.9994 9.22782 11.9489 12.3967
365 2 1.008 8.28536 12.2395 12.3773
366 2 1.008 9.15681 11.0175 12.3748
367 1 15.9994 10.5054 12.7583 10.0899
368 2 1.008 10.4534 13.716 10.1524
369 2 1.008 10.0086 12.4787 10.8511
370 1 15.9994 10.3856 8.24364 10.1638
371 2 1.008 6.55389 14.6331 7.86543
372 2 1.008 10.4445 14.6372 14.6447
373 1 15.9994 14.2914 8.22158 12.4126
374 2 1.008 13.9515 12.4691 16.1768
375 2 1.008 14.0022 12.569 17.6132
376 1 15.9994 14.3036 8.16295 16.9524
377 2 1.008 14.3564 14.6135 16.9
378 2 1.008 6.55186 14.6607 16.9734
379 1 15.9994 14.4386 12.837 16.889
380 2 1.008 14.3585 14.6241 7.86891
381 2 1.008 14.3488 14.6513 3.35716
382 1 15.9994 9.0988 9.21002 16.9097
383 2 1.008 2.64203 14.628 10.1527
384 2 1.008 6.54451 14.6027 3.39398
ITEM: TIMESTEP
20
ITEM: NUMBER OF ATOMS
384
ITEM: BOX BOUNDS xy xz yz pp pp pp
0.0000000000000000e+00 1.5645677531129000e+01 0.0000000000000000e+00
0.0000000000000000e+00 1.4707145294364000e+01 0.0000000000000000e+00
0.0000000000000000e+00 1.8073037030847999e+01 0.0000000000000000e+00
ITEM: ATOMS id type mass x y z
1 1 15.9994 1.3828 1.73796 3.39227
2 2 1.008 1.32075 2.73024 3.28359
3 2 1.008 0.51158 1.46616 3.33503
4 1 15.9994 5.20716 4.47045 1.13196
5 2 1.008 5.68448 4.84326 1.90575
6 2 1.008 5.69323 4.78844 0.349223
7 1 15.9994 6.58807 5.39423 3.2944
8 2 1.008 6.11366 5.16736 4.13795
9 2 1.008 6.53324 6.39081 3.25563
10 1 15.9994 5.28443 4.49054 5.57529
11 2 1.008 4.47779 4.85049 5.58743
12 2 1.008 5.77939 4.80742 6.36011
13 1 15.9994 2.57563 0.850081 5.6694
14 2 1.008 2.17114 1.14841 4.78692
15 2 1.008 3.4373 1.15722 5.62825
16 1 15.9994 2.69592 5.44315 5.55102
17 2 1.008 2.62241 6.35995 5.5822
18 2 1.008 2.16929 5.14869 6.42801
19 1 15.9994 5.18822 1.70136 1.09171
20 2 1.008 5.17445 2.76374 1.1115
21 2 1.008 5.60402 1.42221 1.93258
22 1 15.9994 5.19919 1.73422 5.57733
23 2 1.008 5.68843 1.43642 6.44053
24 2 1.008 5.22186 2.66103 5.59585
25 1 15.9994 1.3508 4.62852 7.82367
26 2 1.008 1.33786 3.69115 7.82728
27 2 1.008 1.73811 4.94076 8.67009
28 1 15.9994 1.30823 4.48833 3.36306
29 2 1.008 1.79737 4.80159 2.54621
30 2 1.008 1.67702 4.85376 4.12759
31 1 15.9994 2.59326 5.40095 1.12676
32 2 1.008 2.58842 6.33156 1.1137
33 2 1.008 3.53398 5.22124 0.976488
34 1 15.9994 2.58228 0.824285 1.07535
35 2 1.008 2.15424 1.12907 1.83282
36 2 1.008 3.38638 1.17907 1.05675
37 1 15.9994 6.54645 0.838764 3.34029
38 2 1.008 6.1393 1.09764 4.16356
39 2 1.008 8.39084 1.56981 3.3644
40 1 15.9994 6.52147 0.876459 7.81973
41 2 1.008 6.0524 1.21182 8.57644
42 2 1.008 8.33711 1.46927 7.94199
43 1 15.9994 6.50442 5.43495 7.86822
44 2 1.008 7.42436 5.16296 7.84739
45 2 1.008 6.54913 6.41905 7.94274
46 1 15.9994 1.33966 1.82869 7.90717
47 2 1.008 1.75414 1.52744 7.10137
48 2 1.008 0.426993 1.45762 7.97331
49 1 15.9994 9.2057 1.75344 3.34705
50 2 1.008 9.09767 2.69136 3.32927
51 2 1.008 10.0024 1.06735 1.88327
52 1 15.9994 13.0488 4.56614 1.13501
53 2 1.008 13.0617 3.52969 1.16367
54 2 1.008 13.4519 4.83488 0.349275
55 1 15.9994 14.3892 5.46793 3.40249
56 2 1.008 15.1949 5.13162 3.36802
57 2 1.008 13.9003 5.03358 2.58719
58 1 15.9994 13.1003 4.5187 5.66422
59 2 1.008 13.4386 4.83834 4.83126
60 2 1.008 12.2892 4.79404 5.68775
61 1 15.9994 10.4231 0.861368 5.65825
62 2 1.008 9.93971 1.21539 4.84087
63 2 1.008 11.3554 1.14678 5.64812
64 1 15.9994 10.4844 5.43887 5.65491
65 2 1.008 10.1215 5.22392 4.92143
66 2 1.008 10.4693 6.32291 5.66272
67 1 15.9994 13.0824 1.79328 1.08251
68 2 1.008 12.1358 1.37119 1.09826
69 2 1.008 13.46 1.40336 1.77049
70 1 15.9994 13.0112 1.74208 5.59857
71 2 1.008 13.4336 1.44101 6.33839
72 2 1.008 13.0567 2.70455 5.73511
73 1 15.9994 9.13792 4.60079 7.89749
74 2 1.008 9.08586 3.59871 7.80857
75 2 1.008 9.6238 4.78814 7.20945
76 1 15.9994 9.20859 4.5158 3.38886
77 2 1.008 8.29608 4.86767 3.27603
78 2 1.008 9.64229 4.78501 2.68684
79 1 15.9994 10.4281 5.48209 1.13378
80 2 1.008 10.0605 5.16772 0.286167
81 2 1.008 11.4012 5.12217 1.17669
82 1 15.9994 10.4653 0.817937 1.12593
83 2 1.008 10.0631 1.15847 0.357628
84 2 1.008 13.8755 1.13161 4.15921
85 1 15.9994 14.3548 0.864733 3.36268
86 2 1.008 13.8564 1.1343 8.62533
87 2 1.008 13.8906 5.17385 7.08552
88 1 15.9994 14.3743 0.875762 7.82943
89 2 1.008 13.0404 2.75124 10.1184
90 2 1.008 12.1562 1.50954 10.0853
91 1 15.9994 14.3749 5.50935 7.91386
92 2 1.008 15.2813 5.1713 7.83995
93 2 1.008 14.261 7.31508 7.86605
94 1 15.9994 9.17678 1.83981 7.92147
95 2 1.008 9.56107 1.53275 7.0979
96 2 1.008 9.96137 1.11597 9.31677
97 1 15.9994 1.31021 9.11787 3.35809
98 2 1.008 1.73609 8.7287 4.10831
99 2 1.008 1.33436 10.1027 3.3074
100 1 15.9994 5.32197 11.9074 1.11265
101 2 1.008 5.19595 10.9757 1.0277
102 2 1.008 4.371 12.1404 1.17054
103 1 15.9994 6.52506 12.8114 3.39579
104 2 1.008 7.45276 12.5076 3.35334
105 2 1.008 6.02967 12.4021 2.58852
106 1 15.9994 5.18904 11.8166 5.61979
107 2 1.008 5.62776 12.101 6.30992
108 2 1.008 5.66036 12.2227 4.88282
109 1 15.9994 2.5861 8.1878 5.56468
110 2 1.008 3.55671 8.49488 5.64416
111 2 1.008 2.1855 8.5817 6.4226
112 1 15.9994 2.59563 12.7779 5.61015
113 2 1.008 2.63848 13.7565 5.63395
114 2 1.008 3.56434 12.5045 5.72021
115 1 15.9994 5.24889 9.14157 1.18117
116 2 1.008 4.37568 8.8251 1.12043
117 2 1.008 5.58881 8.82274 0.388226
118 1 15.9994 5.20392 9.07119 5.66695
119 2 1.008 5.60246 8.84869 4.89051
120 2 1.008 5.18531 10.0607 5.69185
121 1 15.9994 1.30397 11.9662 7.91288
122 2 1.008 1.33707 11.0228 7.8372
123 2 1.008 1.75897 12.3168 7.08601
124 1 15.9994 1.38151 11.8782 3.3024
125 2 1.008 0.565364 12.2399 3.34242
126 2 1.008 1.77339 12.292 4.13722
127 1 15.9994 2.68137 12.7635 1.02036
128 2 1.008 2.57676 13.7092 1.10268
129 2 1.008 2.2215 12.5186 1.80099
130 1 15.9994 2.6712 8.18003 1.12442
131 2 1.008 2.17914 8.5343 0.343477
132 2 1.008 2.23032 8.46305 1.99015
133 1 15.9994 6.5083 8.13563 3.40511
134 2 1.008 7.34503 8.51041 3.34867
135 2 1.008 6.07252 8.5048 2.58051
136 1 15.9994 6.46154 8.19529 7.92561
137 2 1.008 6.01976 8.57458 7.1443
138 2 1.008 7.40229 8.38517 7.80106
139 1 15.9994 6.5348 12.8432 7.83078
140 2 1.008 6.1388 12.6038 8.63403
141 2 1.008 7.47774 12.5022 7.88839
142 1 15.9994 1.35628 9.18924 7.81894
143 2 1.008 0.463297 8.82998 7.83891
144 2 1.008 1.77242 8.80441 8.63055
145 1 15.9994 9.08654 9.20398 3.35358
146 2 1.008 9.48881 8.82121 2.62295
147 2 1.008 9.54958 8.88511 4.17687
148 1 15.9994 13.135 11.8923 1.07708
149 2 1.008 13.1078 11.0212 1.24465
150 2 1.008 12.1815 12.1077 1.06194
151 1 15.9994 14.4631 12.8032 3.35051
152 2 1.008 13.9637 12.4894 4.06631
153 2 1.008 14.0059 12.4479 2.61585
154 1 15.9994 13.0937 11.8292 5.53904
155 2 1.008 12.1926 12.2069 5.64598
156 2 1.008 13.491 12.1785 6.33789
157 1 15.9994 10.3948 8.21149 5.58154
158 2 1.008 11.34 8.45411 5.52679
159 2 1.008 9.97071 8.4741 6.32633
160 1 15.9994 10.525 12.7921 5.64776
161 2 1.008 10.0686 12.5554 4.75668
162 2 1.008 10.493 13.7816 5.66649
163 1 15.9994 12.9943 9.13002 1.10468
164 2 1.008 13.4283 8.87879 0.382514
165 2 1.008 13.4239 8.76774 1.83158
166 1 15.9994 13.0166 9.09518 5.66566
167 2 1.008 13.4645 8.84068 4.86291
168 2 1.008 13.1257 10.077 5.73548
169 1 15.9994 9.10224 11.879 7.83678
170 2 1.008 9.58588 12.1485 7.12971
171 2 1.008 9.59529 12.1469 8.63492
172 1 15.9994 9.11794 11.9353 3.406
173 2 1.008 9.13761 11.0628 3.37448
174 2 1.008 9.60178 12.2292 2.53203
175 1 15.9994 10.5117 12.7515 1.14251
176 2 1.008 10.0538 12.4071 0.357673
177 2 1.008 10.5043 13.7184 1.07584
178 1 15.9994 10.3798 8.24164 1.12729
179 2 1.008 10.4416 7.35298 1.21516
180 2 1.008 11.2925 8.53546 1.17902
181 1 15.9994 14.262 8.21971 3.38276
182 2 1.008 14.3232 7.14359 3.37859
183 2 1.008 15.1775 8.56388 3.44432
184 1 15.9994 14.349 8.24654 7.93623
185 2 1.008 14.0109 8.56656 7.06669
186 2 1.008 13.5237 8.85984 9.44386
187 1 15.9994 14.3425 12.8479 7.81844
188 2 1.008 14.0197 12.432 8.5655
189 2 1.008 15.179 12.479 7.8238
190 1 15.9994 9.08832 9.11694 7.81477
191 2 1.008 9.16432 10.1534 7.99079
192 2 1.008 9.56608 8.81338 8.71087
193 1 15.9994 1.34407 1.83186 12.46
194 2 1.008 1.68956 1.5529 11.6821
195 2 1.008 0.491763 1.52659 12.3927
196 1 15.9994 5.19496 4.47592 10.1528
197 2 1.008 5.63857 4.79165 10.9404
198 2 1.008 5.73497 4.83919 9.33456
199 1 15.9994 6.5965 5.4073 12.3243
200 2 1.008 6.20317 5.17071 13.0963
201 2 1.008 6.60217 6.42168 12.3366
202 1 15.9994 5.29423 4.5611 14.6355
203 2 1.008 5.17968 3.57379 14.635
204 2 1.008 4.39919 4.87367 14.7078
205 1 15.9994 2.67107 0.819501 14.653
206 2 1.008 2.13816 1.15683 15.521
207 2 1.008 2.15767 1.26341 13.9988
208 1 15.9994 2.70756 5.41954 14.6131
209 2 1.008 2.61486 6.38042 14.6485
210 2 1.008 2.19194 5.15634 15.3461
211 1 15.9994 5.27865 1.71864 10.1669
212 2 1.008 4.34708 1.47128 10.1667
213 2 1.008 5.30913 2.70894 10.1494
214 1 15.9994 5.25415 1.7948 14.6286
215 2 1.008 5.75668 1.49048 15.3497
216 2 1.008 4.31282 1.48222 14.5736
217 1 15.9994 1.33357 4.60838 16.8491
218 2 1.008 1.32199 3.63207 16.9117
219 2 1.008 1.85238 4.95894 17.6874
220 1 15.9994 1.3326 4.58783 12.345
221 2 1.008 1.30144 3.59773 12.2744
222 2 1.008 1.92151 5.06111 13.1092
223 1 15.9994 2.625 5.51285 10.072
224 2 1.008 2.1966 5.26631 10.8469
225 2 1.008 3.57314 5.27872 10.0995
226 1 15.9994 2.64734 0.90347 10.1981
227 2 1.008 2.1905 1.20239 9.4333
228 2 1.008 6.12989 1.19488 11.6858
229 1 15.9994 6.58048 0.790069 12.3984
230 2 1.008 6.10574 1.16469 13.2395
231 2 1.008 8.29967 1.35008 12.3773
232 1 15.9994 6.5613 0.865539 16.8609
233 2 1.008 6.26494 1.15974 17.7058
234 2 1.008 8.24489 1.48728 16.9273
235 1 15.9994 6.52746 5.47601 16.9473
236 2 1.008 6.04879 5.04923 16.157
237 2 1.008 7.46244 5.1774 16.9668
238 1 15.9994 1.36642 1.86089 16.8733
239 2 1.008 0.45378 1.53899 16.7966
240 2 1.008 1.78001 1.40991 17.644
241 1 15.9994 9.19158 1.76905 12.4121
242 2 1.008 9.18813 2.76482 12.4179
243 2 1.008 9.90344 1.15389 10.9
244 1 15.9994 13.0089 4.47279 10.1205
245 2 1.008 13.4742 4.86443 10.9168
246 2 1.008 13.5128 4.87154 9.27846
247 1 15.9994 14.3562 5.46021 12.3433
248 2 1.008 15.2488 5.17999 12.4057
249 2 1.008 13.8455 5.03194 13.175
250 1 15.9994 13.0464 4.57454 14.6052
251 2 1.008 13.4313 4.87578 15.3968
252 2 1.008 13.0985 3.62141 14.5698
253 1 15.9994 10.4665 0.888902 14.7148
254 2 1.008 10.0491 1.2094 13.8647
255 2 1.008 9.57177 1.42615 16.1094
256 1 15.9994 10.4574 5.48932 14.6831
257 2 1.008 10.0001 5.15297 13.9069
258 2 1.008 11.3274 5.21576 14.5824
259 1 15.9994 13.1137 1.71232 10.1563
260 2 1.008 13.8595 1.14848 11.7867
261 2 1.008 13.9391 1.2245 13.1799
262 1 15.9994 13.0834 1.79932 14.6139
263 2 1.008 13.5685 1.38579 15.4668
264 2 1.008 12.2653 1.55727 14.6666
265 1 15.9994 9.14366 4.61828 16.9802
266 2 1.008 9.08244 3.66758 16.8199
267 2 1.008 9.58382 4.94509 16.0677
268 1 15.9994 9.21706 4.51849 12.4472
269 2 1.008 8.39249 4.75027 12.391
270 2 1.008 9.71024 4.77676 11.6042
271 1 15.9994 10.4546 5.4805 10.1953
272 2 1.008 10.0988 5.17658 9.37896
273 2 1.008 11.3892 5.12769 10.2319
274 1 15.9994 10.4833 0.813636 10.1476
275 2 1.008 10.4091 7.23103 10.1801
276 2 1.008 11.2773 8.49561 10.173
277 1 15.9994 14.3942 0.774897 12.3961
278 2 1.008 13.8898 1.16085 17.6903
279 2 1.008 15.3863 5.11871 16.8542
280 1 15.9994 14.361 0.885224 16.8553
281 2 1.008 14.3527 6.3784 16.9585
282 2 1.008 13.82 8.49626 16.2341
283 1 15.9994 14.3539 5.4159 16.8867
284 2 1.008 15.2226 8.49951 16.977
285 2 1.008 13.5588 8.85697 14.0075
286 1 15.9994 9.15065 1.85076 16.9425
287 2 1.008 6.47873 7.21753 16.9233
288 2 1.008 10.4458 7.28349 14.6953
289 1 15.9994 1.30619 9.09592 12.4713
290 2 1.008 1.80488 8.85036 11.6649
291 2 1.008 1.28763 10.0381 12.3631
292 1 15.9994 5.27475 11.7958 10.0747
293 2 1.008 5.63795 12.2367 10.9661
294 2 1.008 4.40122 12.1122 10.1665
295 1 15.9994 6.58998 12.7238 12.3297
296 2 1.008 6.14349 12.5042 13.2316
297 2 1.008 6.55591 13.6869 12.2985
298 1 15.9994 5.30101 11.9159 14.6418
299 2 1.008 5.27052 10.9487 14.682
300 2 1.008 4.48228 12.156 14.6986
301 1 15.9994 2.57347 8.16596 14.6989
302 2 1.008 2.15531 8.55064 13.9208
303 2 1.008 3.45416 8.46789 14.662
304 1 15.9994 2.69507 12.7818 14.6064
305 2 1.008 2.65689 13.7859 14.7212
306 2 1.008 2.11233 12.4817 15.3635
307 1 15.9994 5.23311 9.05149 10.2156
308 2 1.008 5.26909 10.0866 10.0916
309 2 1.008 5.51356 8.82613 9.47152
310 1 15.9994 5.16267 9.14752 14.6416
311 2 1.008 5.61627 8.78516 15.3559
312 2 1.008 5.59427 8.80372 13.9011
313 1 15.9994 1.38857 11.9086 16.8364
314 2 1.008 1.72898 12.2801 17.6669
315 2 1.008 0.522576 12.2283 16.9025
316 1 15.9994 1.38012 11.8718 12.3424
317 2 1.008 0.450412 12.3576 12.3724
318 2 1.008 1.88265 12.2153 13.1185
319 1 15.9994 2.72469 12.8546 10.1371
320 2 1.008 2.22117 12.5717 10.7435
321 2 1.008 2.13283 12.5962 9.31327
322 1 15.9994 2.5459 8.23611 10.1477
323 2 1.008 2.57522 7.36495 10.1326
324 2 1.008 3.48399 8.44106 10.1547
325 1 15.9994 6.48515 8.152 12.4608
326 2 1.008 7.3312 8.51546 12.4794
327 2 1.008 6.02942 8.40994 11.7611
328 1 15.9994 6.45997 8.2293 16.9019
329 2 1.008 7.35955 8.4678 16.9122
330 2 1.008 9.46871 8.89764 17.6399
331 1 15.9994 6.62586 12.8414 16.896
332 2 1.008 6.15842 12.4775 16.1866
333 2 1.008 6.17203 12.4671 17.6833
334 1 15.9994 1.28666 9.12557 16.9699
335 2 1.008 1.72018 8.86665 16.2072
336 2 1.008 1.38735 10.0725 16.9041
337 1 15.9994 9.12756 9.1989 12.3966
338 2 1.008 9.6366 8.81404 11.7001
339 2 1.008 9.51216 8.84447 13.2486
340 1 15.9994 13.1172 11.9096 10.148
341 2 1.008 13.0743 10.9871 10.183
342 2 1.008 12.2065 12.2139 10.1453
343 1 15.9994 14.3985 12.7688 12.4334
344 2 1.008 13.963 12.4055 11.6511
345 2 1.008 14.4042 13.6586 12.3904
346 1 15.9994 13.0922 11.8596 14.6961
347 2 1.008 13.4346 12.2515 13.8296
348 2 1.008 12.1171 12.1726 14.5983
349 1 15.9994 10.3819 8.23357 14.6553
350 2 1.008 11.356 8.58407 14.6551
351 2 1.008 9.62376 8.84657 16.1161
352 1 15.9994 10.5354 12.8884 14.6706
353 2 1.008 10.0568 12.5464 13.8399
354 2 1.008 10.0854 12.4601 15.3914
355 1 15.9994 12.9845 9.15215 10.1554
356 2 1.008 13.4183 8.7305 10.9161
357 2 1.008 15.2438 8.5277 12.3865
358 1 15.9994 13.0067 9.09158 14.705
359 2 1.008 13.1685 10.0909 14.752
360 2 1.008 14.3089 7.17961 12.3869
361 1 15.9994 9.22373 11.9698 16.8981
362 2 1.008 8.31284 12.1656 17.0258
363 2 1.008 9.18992 11.0336 16.9429
364 1 15.9994 9.23226 11.9535 12.3969
365 2 1.008 8.2584 12.2614 12.3587
366 2 1.008 9.12397 11.0516 12.3536
367 1 15.9994 10.5005 12.7461 10.0881
368 2 1.008 10.4309 13.7086 10.1803
369 2 1.008 9.9705 12.4703 10.8086
370 1 15.9994 10.3877 8.24193 10.1707
371 2 1.008 6.57479 14.6296 7.86792
372 2 1.008 10.4277 14.6037 14.6224
373 1 15.9994 14.2986 8.22453 12.4176
374 2 1.008 13.9458 12.4323 16.2061
375 2 1.008 14.0525 12.654 17.5717
376 1 15.9994 14.2945 8.16052 16.9451
377 2 1.008 14.359 14.5866 16.9078
378 2 1.008 6.57012 14.6841 17.0523
379 1 15.9994 14.444 12.8397 16.8819
380 2 1.008 14.3567 14.616 7.87167
381 2 1.008 14.3404 14.6863 3.34449
382 1 15.9994 9.10329 9.21441 16.9104
383 2 1.008 2.65939 14.6096 10.1557
384 2 1.008 6.55983 14.5893 3.41899
