384
Lattice="15.6456775311 0 0  0.0000000000 14.7071452944 0  0.0000000000 0.0000000000 18.0730370308" Properties=species:S:1:pos:R:3 step=80
O  1.33015000  1.77106000  3.34996000
H  1.26999000  2.74697000  3.23942000
H  0.39414600  1.43871000  3.30507000
O  5.28828000  4.57986000  1.14007000
H  5.73926000  4.94745000  1.93618000
H  5.80078000  4.87261000  0.35571100
O  6.51684000  5.52345000  3.36298000
H  6.06825000  5.27826000  4.19575000
H  6.47223000  6.50534000  3.30855000
O  5.24854000  4.54668000  5.65220000
H  4.33073000  4.93587000  5.65215000
H  5.74743000  4.86191000  6.43647000
O  2.60434000  0.88013300  5.57088000
H  2.21441000  1.15574000  4.70194000
H  3.54764000  1.22108000  5.56747000
O  2.62461000  5.47545000  5.62403000
H  2.56893000  6.46154000  5.63297000
H  2.14159000  5.18674000  6.43496000
O  5.25828000  1.79805000  1.13626000
H  5.23617000  2.78957000  1.14642000
H  5.66159000  1.50245000  1.98441000
O  5.25073000  1.78567000  5.63051000
H  5.70546000  1.48378000  6.45175000
H  5.25976000  2.76356000  5.63134000
O  1.36989000  4.54861000  7.90342000
H  1.36636000  3.56041000  7.89015000
H  1.73732000  4.86530000  8.76862000
O  1.34680000  4.51223000  3.35751000
H  1.83888000  4.81929000  2.57223000
H  1.70997000  4.91513000  4.18379000
O  2.64436000  5.42453000  1.14262000
H  2.57799000  6.40862000  1.10476000
H  3.60963000  5.25540000  0.96157000
O  2.64473000  0.88267100  1.09271000
H  2.16579000  1.19916000  1.88826000
H  3.54323000  1.29964000  1.07760000
O  6.55055000  0.82869300  3.39203000
H  6.14325000  1.12764000  4.23567000
H  8.18846000  1.53338000  3.34119000
O  6.50331000  0.82703800  7.87210000
H  6.00398000  1.21667000  8.63637000
H  8.22751000  1.34083000  7.91020000
O  6.55923000  5.51920000  7.90285000
H  7.48733000  5.20494000  7.83761000
H  6.60183000  6.50155000  7.97004000
O  1.30709000  1.72248000  7.83930000
H  1.71260000  1.44497000  6.98899000
H  0.39704500  1.36027000  7.94850000
O  9.15089000  1.80920000  3.30579000
H  9.06154000  2.78652000  3.29729000
H  9.91608000  1.15494000  1.89622000
O  13.06340000  4.53263000  1.05571000
H  13.09320000  3.55251000  1.10468000
H  13.49070000  4.85030000  0.22651700
O  14.39220000  5.44460000  3.32829000
H  15.32000000  5.05987000  3.31810000
H  13.92220000  5.02901000  2.55791000
O  13.06790000  4.57404000  5.61116000
H  13.41530000  4.88638000  4.73921000
H  12.11880000  4.86770000  5.67223000
O  10.46280000  0.91280700  5.55446000
H  9.98358000  1.26055000  4.77600000
H  11.40630000  1.19487000  5.58496000
O  10.42150000  5.45222000  5.60409000
H  9.98522000  5.19710000  4.73623000
H  10.43140000  6.43699000  5.64877000
O  13.08000000  1.75596000  1.11378000
H  12.16850000  1.35569000  1.10616000
H  13.53340000  1.32670000  1.89459000
O  13.06290000  1.79249000  5.65286000
H  13.51070000  1.42128000  6.45160000
H  13.10620000  2.76225000  5.78270000
O  9.14502000  4.49218000  7.83301000
H  9.07438000  3.52185000  7.75350000
H  9.69107000  4.74817000  7.02551000
O  9.13348000  4.57267000  3.31915000
H  8.23844000  4.95201000  3.22659000
H  9.64987000  4.84812000  2.50935000
O  10.42440000  5.40713000  1.04745000
H  10.06870000  5.08839000  0.19258400
H  11.34500000  5.08107000  1.10288000
O  10.43080000  0.88461700  1.09415000
H  10.02020000  1.21790000  0.26684900
H  13.87800000  1.11596000  4.22620000
O  14.35380000  0.84026800  3.41383000
H  13.83130000  1.13865000  8.67666000
H  13.92480000  5.17218000  7.07214000
O  14.36200000  0.84305400  7.90137000
H  13.03410000  2.81390000  10.10980000
H  12.10280000  1.60430000  10.05380000
O  14.40680000  5.48075000  7.86427000
H  15.33270000  5.12705000  7.80694000
H  14.23020000  7.24513000  7.82714000
O  9.14073000  1.72046000  7.85478000
H  9.54756000  1.42984000  7.00448000
H  9.93292000  1.12966000  9.30149000
O  1.35221000  9.13220000  3.40694000
H  1.80047000  8.73207000  4.18383000
H  1.36559000  10.10820000  3.35082000
O  5.23802000  11.87890000  1.11825000
H  5.13711000  10.89370000  0.99395100
H  4.29548000  12.15480000  1.20221000
O  6.55787000  12.79860000  3.33952000
H  7.48793000  12.46850000  3.30775000
H  6.05094000  12.38100000  2.60742000
O  5.24433000  11.89180000  5.62669000
H  5.74072000  12.16080000  6.43980000
H  5.72069000  12.30380000  4.86141000
O  2.63317000  8.23529000  5.61760000
H  3.56788000  8.52115000  5.68616000
H  2.23024000  8.58079000  6.43813000
O  2.63040000  12.80350000  5.63482000
H  2.64831000  13.78190000  5.64236000
H  3.56890000  12.52220000  5.75483000
O  5.21472000  9.11071000  1.10322000
H  4.27850000  8.78339000  1.06304000
H  5.61313000  8.78339000  0.25630400
O  5.24020000  9.14982000  5.62428000
H  5.66541000  8.92280000  4.75571000
H  5.20420000  10.13720000  5.67418000
O  1.29697000  11.87780000  7.87732000
H  1.34210000  10.89950000  7.79961000
H  1.73727000  12.26750000  7.09803000
O  1.34269000  11.90800000  3.36797000
H  0.43238600  12.27900000  3.37307000
H  1.75819000  12.29520000  4.16761000
O  2.61611000  12.81170000  1.07232000
H  2.55073000  13.78760000  1.13649000
H  2.12617000  12.53090000  1.89049000
O  2.60803000  8.21396000  1.08880000
H  2.10667000  8.56279000  0.33239700
H  2.20375000  8.46647000  1.94457000
O  6.54576000  8.25713000  3.34186000
H  7.46756000  8.60861000  3.28880000
H  6.10870000  8.59395000  2.53063000
O  6.52949000  8.28356000  7.86370000
H  6.06942000  8.65250000  7.08535000
H  7.51726000  8.44798000  7.75861000
O  6.57928000  12.78750000  7.92119000
H  6.13980000  12.57400000  8.76649000
H  7.50413000  12.44860000  7.98032000
O  1.32237000  9.09095000  7.88531000
H  0.41349300  8.73787000  7.89965000
H  1.76650000  8.70331000  8.68352000
O  9.14376000  9.12616000  3.35018000
H  9.56889000  8.70885000  2.56189000
H  9.58379000  8.83314000  4.17447000
O  13.05280000  11.84610000  1.08753000
H  13.06010000  10.87400000  1.27624000
H  12.09840000  12.07060000  1.03052000
O  14.39140000  12.76030000  3.36797000
H  13.88120000  12.45470000  4.14036000
H  13.92790000  12.39780000  2.58251000
O  13.03990000  11.88750000  5.61477000
H  12.12000000  12.25840000  5.70004000
H  13.46650000  12.21230000  6.43402000
O  10.43950000  8.23943000  5.64074000
H  11.39620000  8.48364000  5.57313000
H  9.97890000  8.52150000  6.47592000
O  10.45390000  12.83850000  5.60471000
H  10.04890000  12.56350000  4.74302000
H  10.46070000  13.82110000  5.59745000
O  13.03790000  9.06813000  1.09194000
H  13.53150000  8.83794000  0.26951200
H  13.50670000  8.69692000  1.87346000
O  13.05030000  9.14719000  5.60396000
H  13.53450000  8.89695000  4.78114000
H  13.15030000  10.11650000  5.72026000
O  9.18027000  11.89780000  7.88466000
H  9.67247000  12.19700000  7.06838000
H  9.67369000  12.19150000  8.69006000
O  9.13956000  11.86930000  3.33658000
H  9.16896000  10.85600000  3.32990000
H  9.58271000  12.16430000  2.51261000
O  10.45370000  12.78710000  1.06525000
H  9.95925000  12.41910000  0.29116700
H  10.47650000  13.76810000  0.99892900
O  10.44670000  8.18205000  1.12511000
H  10.49500000  7.18066000  1.20084000
H  11.37840000  8.49914000  1.18602000
O  14.34950000  8.19837000  3.36488000
H  14.39580000  7.20244000  3.35643000
H  15.25230000  8.56003000  3.43547000
O  14.31510000  8.21751000  7.89834000
H  14.02710000  8.56864000  7.00926000
H  13.58700000  8.82166000  9.38498000
O  14.33580000  12.81290000  7.92610000
H  13.95910000  12.35440000  8.71825000
H  15.23530000  12.40910000  7.86598000
O  9.12508000  9.14050000  7.90407000
H  9.19352000  10.11230000  8.05257000
H  9.55614000  8.82679000  8.73848000
O  1.33058000  1.74469000  12.39990000
H  1.73385000  1.45705000  11.53660000
H  0.38546600  1.46328000  12.30600000
O  5.26947000  4.54798000  10.15100000
H  5.70489000  4.85968000  10.97720000
H  5.77740000  4.90228000  9.38218000
O  6.55971000  5.50331000  12.38360000
H  6.11469000  5.22416000  13.22360000
H  6.57394000  6.48333000  12.39050000
O  5.22389000  4.51356000  14.64710000
H  5.12687000  3.53254000  14.63420000
H  4.31920000  4.86385000  14.76450000
O  2.64345000  0.86217800  14.65930000
H  2.14320000  1.13471000  15.48430000
H  2.11598000  1.29684000  13.95120000
O  2.65128000  5.42975000  14.71520000
H  2.55963000  6.41513000  14.71740000
H  2.10459000  5.12780000  15.48420000
O  5.23948000  1.78196000  10.16450000
H  4.28642000  1.51816000  10.15170000
H  5.29419000  2.76274000  10.13640000
O  5.24513000  1.74387000  14.67990000
H  5.77802000  1.43369000  15.44470000
H  4.31730000  1.42588000  14.60950000
O  1.34504000  4.51998000  16.95110000
H  1.32850000  3.54312000  17.00200000
H  1.83448000  4.87131000  17.73930000
O  1.37920000  4.50368000  12.41780000
H  1.36773000  3.52800000  12.33720000
H  1.93426000  4.93916000  13.11800000
O  2.64057000  5.45103000  10.12410000
H  2.20702000  5.18903000  10.96100000
H  3.61081000  5.26528000  10.15150000
O  2.64348000  0.86209500  10.10260000
H  2.15522000  1.17266000  9.31003000
H  6.08771000  1.30121000  11.63070000
O  6.56450000  0.88254100  12.39250000
H  6.13582000  1.21885000  13.20770000
H  8.24053000  1.38850000  12.35940000
O  6.58144000  0.82658700  16.91610000
H  6.29720000  1.20811000  17.78760000
H  8.21665000  1.38129000  16.86110000
O  6.58749000  5.43826000  16.91000000
H  6.08707000  5.02138000  16.16220000
H  7.51389000  5.13039000  16.91850000
O  1.34097000  1.75986000  16.92540000
H  0.41649000  1.42873000  16.84290000
H  1.78908000  1.31097000  17.68920000
O  9.13190000  1.81341000  12.40430000
H  9.13527000  2.79641000  12.41890000
H  9.84338000  1.20394000  10.86260000
O  13.05920000  4.58927000  10.09170000
H  13.52930000  4.95524000  10.87480000
H  13.53940000  4.94523000  9.29318000
O  14.40710000  5.42617000  12.39940000
H  15.34840000  5.12647000  12.43960000
H  13.91200000  5.00785000  13.15240000
O  13.09460000  4.51391000  14.65290000
H  13.49650000  4.86914000  15.49010000
H  13.15510000  3.52860000  14.61810000
O  10.47870000  0.80266800  14.63090000
H  10.07540000  1.15910000  13.80160000
H  9.55171000  1.31779000  16.06610000
O  10.49700000  5.42700000  14.62370000
H  9.99825000  5.10171000  13.83320000
H  11.43850000  5.13495000  14.51500000
O  13.06000000  1.82413000  10.14600000
H  13.76820000  1.30337000  11.67630000
H  13.98560000  1.28155000  13.17510000
O  13.10690000  1.73642000  14.68260000
H  13.57050000  1.33800000  15.46650000
H  12.16300000  1.45320000  14.71000000
O  9.18422000  4.52592000  16.90440000
H  9.10955000  3.55166000  16.73080000
H  9.59249000  4.87960000  16.06110000
O  9.18670000  4.55878000  12.39430000
H  8.22618000  4.85593000  12.36610000
H  9.64422000  4.79478000  11.53980000
O  10.44320000  5.42158000  10.12630000
H  10.08590000  5.09037000  9.26850000
H  11.38310000  5.13109000  10.19980000
O  10.43180000  0.90501800  10.13090000
H  10.43740000  7.20351000  10.18080000
H  11.39600000  8.46829000  10.17170000
O  14.36860000  0.88301300  12.36300000
H  13.89060000  1.13952000  17.71940000
H  15.37140000  5.17671000  16.86880000
O  14.37490000  0.81675700  16.92230000
H  14.40250000  6.44045000  16.96340000
H  13.82720000  8.58372000  16.12290000
O  14.42190000  5.46890000  16.90040000
H  15.27010000  8.55743000  16.90540000
H  13.66720000  8.88128000  13.90010000
O  9.13439000  1.74671000  16.85650000
H  6.55221000  7.21212000  16.92700000
H  10.52340000  7.19527000  14.70730000
O  1.36220000  9.11882000  12.39510000
H  1.87017000  8.84907000  11.59060000
H  1.28459000  10.10480000  12.30930000
O  5.25003000  11.85230000  10.13590000
H  5.58537000  12.27130000  10.97320000
H  4.31495000  12.14340000  10.19030000
O  6.52609000  12.79530000  12.40250000
H  6.11521000  12.59020000  13.28490000
H  6.52534000  13.77380000  12.33690000
O  5.21253000  11.88760000  14.65600000
H  5.20439000  10.91360000  14.68200000
H  4.26527000  12.18870000  14.73190000
O  2.59099000  8.18520000  14.64210000
H  2.16562000  8.57818000  13.83860000
H  3.53584000  8.47841000  14.62260000
O  2.62388000  12.81350000  14.68120000
H  2.61127000  13.80110000  14.78680000
H  2.05604000  12.49380000  15.41490000
O  5.28963000  9.11000000  10.15270000
H  5.30367000  10.09050000  10.05300000
H  5.63732000  8.80410000  9.26404000
O  5.21019000  9.11498000  14.64190000
H  5.69227000  8.72346000  15.41170000
H  5.65657000  8.77650000  13.83730000
O  1.34580000  11.94330000  16.90960000
H  1.72262000  12.31350000  17.74060000
H  0.41115400  12.25840000  16.94990000
O  1.32850000  11.90720000  12.39350000
H  0.46483900  12.39740000  12.38420000
H  1.85162000  12.23560000  13.15690000
O  2.65193000  12.80570000  10.11550000
H  2.06865000  12.51490000  10.88400000
H  2.08663000  12.56090000  9.32706000
O  2.62912000  8.18010000  10.11630000
H  2.63347000  7.17939000  10.12910000
H  3.59137000  8.40478000  10.11410000
O  6.52421000  8.23714000  12.41440000
H  7.42257000  8.60877000  12.42100000
H  6.01213000  8.52238000  11.60040000
O  6.55168000  8.19515000  16.89170000
H  7.49717000  8.45861000  16.90920000
H  9.57097000  8.78896000  17.75710000
O  6.53548000  12.79440000  16.93270000
H  6.04511000  12.43500000  16.15560000
H  6.07981000  12.43050000  17.71640000
O  1.30365000  9.15121000  16.91700000
H  1.76216000  8.85485000  16.10210000
H  1.41345000  10.13020000  16.89010000
O  9.18800000  9.13159000  12.40800000
H  9.73741000  8.74170000  11.69110000
H  9.53584000  8.78456000  13.25000000
O  13.04130000  11.87460000  10.17780000
H  13.00430000  10.89950000  10.20800000
H  12.11940000  12.21450000  10.18840000
O  14.36540000  12.86930000  12.38740000
H  13.92680000  12.46020000  11.59600000
H  14.38100000  13.85700000  12.32340000
O  13.04630000  11.94520000  14.64220000
H  13.40830000  12.35400000  13.82350000
H  12.09470000  12.19660000  14.55570000
O  10.47200000  8.17738000  14.67720000
H  11.37900000  8.52989000  14.65600000
H  9.68850000  8.79951000  16.14650000
O  10.43210000  12.81810000  14.66410000
H  9.98551000  12.47890000  13.85670000
H  9.97671000  12.39460000  15.41860000
O  13.03690000  9.11072000  10.16880000
H  13.48540000  8.69684000  10.94890000
H  15.35660000  8.50083000  12.35690000
O  13.05390000  9.16285000  14.63470000
H  13.20220000  10.14350000  14.70520000
H  14.38930000  7.22161000  12.38810000
O  9.12113000  11.90200000  16.90540000
H  8.16884000  12.11340000  17.05860000
H  9.14262000  10.91970000  16.95900000
O  9.11894000  11.88810000  12.39550000
H  8.18673000  12.22020000  12.35910000
H  9.02106000  10.90690000  12.31170000
O  10.46630000  12.81780000  10.17480000
H  10.40630000  13.79740000  10.26460000
H  9.86952000  12.48080000  10.88170000
O  10.45050000  8.18499000  10.19310000
H  6.55735000  14.55020000  7.93722000
H  10.40760000  14.53520000  14.54440000
O  14.41770000  8.19754000  12.39860000
H  13.83410000  12.37200000  16.18810000
H  13.87180000  12.53930000  17.78120000
O  14.34250000  8.23502000  16.88810000
H  14.35640000  14.54620000  16.95010000
H  6.57859000  14.55510000  17.12430000
O  14.36260000  12.77390000  16.92150000
H  14.34130000  14.56560000  7.95869000
H  14.33700000  14.55240000  3.37610000
O  9.16670000  9.13558000  16.92180000
H  2.64355000  14.58790000  10.08760000
H  6.57396000  14.55780000  3.44691000
384
Lattice="15.6456775311 0 0  0.0000000000 14.7071452944 0  0.0000000000 0.0000000000 18.0730370308" Properties=species:S:1:pos:R:3 step=90
O  1.34518000  1.70680000  3.39084000
H  1.36687000  2.67827000  3.30252000
H  0.38561000  1.41239000  3.36462000
O  5.30891000  4.57139000  1.18472000
H  5.68685000  4.95548000  2.01787000
H  5.86614000  4.79836000  0.43102200
O  6.51103000  5.54260000  3.32301000
H  6.09598000  5.30012000  4.16539000
H  6.53213000  6.52785000  3.28221000
O  5.28467000  4.54728000  5.67877000
H  4.37093000  4.97466000  5.75296000
H  5.76387000  4.96236000  6.43364000
O  2.59160000  0.89550900  5.57239000
H  2.17150000  1.16946000  4.72880000
H  3.52872000  1.25277000  5.56751000
O  2.62982000  5.49817000  5.60792000
H  2.57576000  6.48846000  5.60133000
H  2.20098000  5.20498000  6.41454000
O  5.22639000  1.78871000  1.18333000
H  5.18079000  2.76563000  1.22480000
H  5.54035000  1.51591000  2.08591000
O  5.26074000  1.78443000  5.65576000
H  5.67059000  1.47635000  6.47341000
H  5.25350000  2.75664000  5.67202000
O  1.42104000  4.59722000  7.90518000
H  1.39993000  3.60339000  7.91911000
H  1.81870000  4.85058000  8.79390000
O  1.35945000  4.43147000  3.35805000
H  1.92562000  4.78767000  2.64706000
H  1.76012000  4.82853000  4.18869000
O  2.61366000  5.40315000  1.20087000
H  2.41194000  6.37345000  1.15727000
H  3.55548000  5.25735000  0.94671700
O  2.62082000  0.89261500  1.07848000
H  2.18606000  1.23800000  1.88178000
H  3.52288000  1.30921000  1.04130000
O  6.58478000  0.74717300  3.42311000
H  6.20973000  1.04466000  4.28024000
H  8.24927000  1.43099000  3.33386000
O  6.46468000  0.82399000  7.83576000
H  5.97866000  1.08963000  8.65030000
H  8.22212000  1.33045000  7.88926000
O  6.55728000  5.58591000  7.95034000
H  7.47625000  5.26577000  7.86485000
H  6.57279000  6.56412000  7.93900000
O  1.29338000  1.67327000  7.82543000
H  1.60709000  1.35991000  6.95315000
H  0.37596900  1.29622000  7.90613000
O  9.17182000  1.81651000  3.24783000
H  9.11979000  2.78706000  3.22393000
H  9.81936000  1.11184000  1.87158000
O  13.05360000  4.57158000  1.04708000
H  13.06280000  3.59173000  1.04741000
H  13.56900000  4.78992000  0.22423700
O  14.45160000  5.44942000  3.32719000
H  15.33860000  4.99601000  3.34158000
H  13.95010000  5.03637000  2.58110000
O  13.08310000  4.63836000  5.65078000
H  13.38730000  4.94773000  4.77090000
H  12.11510000  4.86932000  5.70323000
O  10.48390000  0.96877000  5.52825000
H  10.08990000  1.31754000  4.70839000
H  11.41870000  1.29475000  5.44583000
O  10.38040000  5.45459000  5.64146000
H  9.94815000  5.24989000  4.75546000
H  10.36770000  6.44000000  5.70854000
O  13.07820000  1.76292000  1.13683000
H  12.15790000  1.41626000  1.13092000
H  13.57600000  1.37245000  1.92380000
O  13.03030000  1.82162000  5.71790000
H  13.51390000  1.37692000  6.47148000
H  13.09610000  2.78866000  5.85529000
O  9.12762000  4.45147000  7.81573000
H  9.00175000  3.50354000  7.76022000
H  9.61225000  4.77811000  6.99969000
O  9.15835000  4.56695000  3.29278000
H  8.28882000  4.98088000  3.15745000
H  9.68374000  4.75915000  2.44351000
O  10.39540000  5.38723000  1.02797000
H  10.11590000  5.04378000  0.15156300
H  11.31750000  5.11149000  1.09943000
O  10.38930000  0.86483700  1.09999000
H  9.88093000  1.23936000  0.35788900
H  13.82040000  1.16364000  4.26456000
O  14.32740000  0.85252900  3.48962000
H  13.87210000  1.18444000  8.66372000
H  13.99430000  5.24027000  7.08460000
O  14.37380000  0.81062700  7.90817000
H  13.13310000  2.82118000  10.03360000
H  12.11980000  1.55894000  10.07380000
O  14.45220000  5.54414000  7.87308000
H  15.38130000  5.18260000  7.78030000
H  14.23480000  7.27129000  7.86019000
O  9.16229000  1.69293000  7.85057000
H  9.49631000  1.42371000  6.95859000
H  9.93935000  1.02817000  9.25393000
O  1.37099000  9.14833000  3.45823000
H  1.86184000  8.90721000  4.28544000
H  1.50746000  10.10440000  3.54185000
O  5.25564000  11.90220000  1.13017000
H  5.24227000  10.91140000  0.96241500
H  4.34535000  12.26010000  1.18605000
O  6.53587000  12.77290000  3.32538000
H  7.45472000  12.43080000  3.29595000
H  6.09951000  12.35410000  2.57704000
O  5.22376000  11.83400000  5.64828000
H  5.69065000  12.14140000  6.49785000
H  5.73002000  12.22550000  4.88027000
O  2.63161000  8.23587000  5.61225000
H  3.57081000  8.46454000  5.57704000
H  2.21662000  8.56756000  6.43390000
O  2.62148000  12.79740000  5.66348000
H  2.64233000  13.77280000  5.70080000
H  3.54566000  12.48420000  5.81549000
O  5.19885000  9.11362000  1.13950000
H  4.24877000  8.79456000  1.12439000
H  5.65876000  8.76577000  0.31928900
O  5.22728000  9.13507000  5.62731000
H  5.65313000  8.95215000  4.73741000
H  5.12931000  10.12220000  5.62364000
O  1.24008000  11.90080000  7.87859000
H  1.36797000  10.91330000  7.79970000
H  1.64917000  12.24700000  7.05823000
O  1.35962000  11.94370000  3.35793000
H  0.43362100  12.27810000  3.36508000
H  1.80358000  12.34410000  4.10402000
O  2.59307000  12.81730000  1.00544000
H  2.62664000  13.78820000  0.97814900
H  2.19169000  12.49090000  1.85637000
O  2.60667000  8.23626000  1.10680000
H  2.02505000  8.62646000  0.42729900
H  2.22387000  8.56836000  1.93515000
O  6.56926000  8.23603000  3.29611000
H  7.49353000  8.61301000  3.32130000
H  6.11145000  8.56048000  2.50807000
O  6.45152000  8.35762000  7.84595000
H  6.02937000  8.70198000  7.02684000
H  7.43289000  8.53478000  7.65301000
O  6.58213000  12.81010000  7.96760000
H  6.14341000  12.61570000  8.82200000
H  7.47984000  12.44080000  8.01571000
O  1.33542000  9.03811000  7.87065000
H  0.41947000  8.70781000  7.88518000
H  1.78628000  8.72597000  8.69065000
O  9.12087000  9.17121000  3.32083000
H  9.60146000  8.67462000  2.60519000
H  9.55402000  8.85100000  4.13083000
O  13.06930000  11.84580000  1.03305000
H  13.18690000  10.89630000  1.27712000
H  12.12440000  12.08670000  1.04269000
O  14.45870000  12.73660000  3.35697000
H  13.92310000  12.46500000  4.13027000
H  13.98440000  12.37710000  2.58053000
O  13.02910000  11.86750000  5.56342000
H  12.08260000  12.18320000  5.58441000
H  13.48650000  12.19840000  6.35856000
O  10.39580000  8.26479000  5.61294000
H  11.34010000  8.59933000  5.64857000
H  10.10220000  8.64533000  6.49407000
O  10.50170000  12.85750000  5.57501000
H  10.11600000  12.65880000  4.70029000
H  10.45860000  13.83280000  5.66434000
O  13.02920000  9.06332000  1.07767000
H  13.50120000  8.80163000  0.23180700
H  13.55760000  8.59888000  1.77179000
O  13.05020000  9.18066000  5.60426000
H  13.49510000  8.94470000  4.74762000
H  13.06400000  10.14020000  5.67490000
O  9.13794000  11.85200000  7.84462000
H  9.66208000  12.12350000  7.01874000
H  9.66991000  12.24060000  8.59888000
O  9.08646000  11.86410000  3.33944000
H  9.16899000  10.83760000  3.28892000
H  9.46768000  12.17940000  2.49670000
O  10.46860000  12.74040000  1.04208000
H  10.03380000  12.38600000  0.21987100
H  10.49330000  13.69950000  0.85461900
O  10.42610000  8.17053000  1.16587000
H  10.45920000  7.15695000  1.19133000
H  11.34340000  8.53306000  1.16107000
O  14.30460000  8.19613000  3.38920000
H  14.42330000  7.22830000  3.39443000
H  15.21640000  8.51336000  3.42661000
O  14.29520000  8.24280000  7.91271000
H  14.01960000  8.59193000  7.02499000
H  13.58050000  8.92056000  9.38086000
O  14.30760000  12.83260000  7.92801000
H  13.90660000  12.44290000  8.73900000
H  15.21520000  12.46230000  7.77274000
O  9.08635000  9.11872000  7.90492000
H  9.08462000  10.08970000  7.97364000
H  9.48293000  8.68071000  8.68036000
O  1.29758000  1.75976000  12.41350000
H  1.77606000  1.48186000  11.58160000
H  0.33954300  1.50737000  12.35170000
O  5.25319000  4.55401000  10.16720000
H  5.68749000  4.85142000  10.97890000
H  5.83691000  4.88231000  9.46375000
O  6.59410000  5.56560000  12.32390000
H  6.21083000  5.29154000  13.19530000
H  6.65996000  6.53180000  12.34440000
O  5.19742000  4.51863000  14.63690000
H  5.10297000  3.55344000  14.66860000
H  4.29989000  4.89258000  14.75890000
O  2.61973000  0.82332000  14.66560000
H  2.26374000  1.11581000  15.53250000
H  2.13521000  1.27127000  13.94040000
O  2.68161000  5.41282000  14.74290000
H  2.52504000  6.39588000  14.71530000
H  2.10094000  4.97873000  15.42000000
O  5.24359000  1.82308000  10.18250000
H  4.28557000  1.59591000  10.19100000
H  5.26094000  2.79721000  10.13730000
O  5.26068000  1.73368000  14.68610000
H  5.63916000  1.27284000  15.48000000
H  4.36021000  1.29273000  14.75660000
O  1.36560000  4.52993000  16.95830000
H  1.32699000  3.56156000  17.07800000
H  1.84893000  4.86411000  17.74120000
O  1.39965000  4.52581000  12.38360000
H  1.49296000  3.55333000  12.46040000
H  2.04109000  4.72589000  13.08790000
O  2.63587000  5.53169000  10.07290000
H  2.26660000  5.23636000  10.93020000
H  3.56864000  5.22319000  10.10300000
O  2.67134000  0.89117700  10.08970000
H  2.22063000  1.13449000  9.25552000
H  6.07945000  1.32343000  11.65870000
O  6.59027000  0.87955500  12.38410000
H  6.19741000  1.21286000  13.20640000
H  8.19357000  1.48669000  12.41010000
O  6.63539000  0.77097500  16.92920000
H  6.42832000  1.30184000  17.75330000
H  8.16701000  1.39441000  16.88120000
O  6.56467000  5.42557000  16.92320000
H  6.18299000  4.93473000  16.16320000
H  7.47482000  5.09461000  16.95110000
O  1.40469000  1.76947000  16.94660000
H  0.46020300  1.49822000  16.89360000
H  1.73308000  1.28162000  17.74880000
O  9.13005000  1.81675000  12.40200000
H  8.97676000  2.77978000  12.42270000
H  9.88862000  1.29013000  10.84910000
O  13.04230000  4.60669000  10.03030000
H  13.52020000  4.95234000  10.82730000
H  13.48200000  4.94868000  9.22791000
O  14.38760000  5.42344000  12.39620000
H  15.34210000  5.10596000  12.50270000
H  13.93130000  5.04796000  13.19950000
O  13.08540000  4.54162000  14.65410000
H  13.51230000  4.84210000  15.50660000
H  13.20270000  3.55356000  14.73870000
O  10.46570000  0.74026100  14.62810000
H  10.12820000  1.16636000  13.82990000
H  9.54579000  1.31630000  16.01570000
O  10.48960000  5.37375000  14.60840000
H  9.99379000  5.10375000  13.78180000
H  11.43520000  5.08467000  14.51090000
O  13.05800000  1.85286000  10.15290000
H  13.77920000  1.24087000  11.61530000
H  14.02360000  1.13188000  13.21780000
O  13.15090000  1.72178000  14.68860000
H  13.56540000  1.33337000  15.48870000
H  12.20120000  1.40752000  14.75360000
O  9.17649000  4.54810000  16.95900000
H  9.05442000  3.57153000  16.80210000
H  9.50224000  4.93293000  16.12970000
O  9.25285000  4.53350000  12.40650000
H  8.29608000  4.87194000  12.22690000
H  9.71412000  4.74122000  11.54960000
O  10.45610000  5.39308000  10.15520000
H  10.11910000  5.01590000  9.29526000
H  11.40610000  5.12336000  10.14510000
O  10.39130000  0.89086500  10.10570000
H  10.44560000  7.20161000  10.20610000
H  11.42240000  8.41627000  10.14810000
O  14.37020000  0.86820200  12.35330000
H  13.89980000  1.12663000  17.71520000
H  15.42580000  5.21662000  16.91320000
O  14.36550000  0.80268800  16.90850000
H  14.43660000  6.45644000  16.97980000
H  13.85780000  8.61445000  16.10300000
O  14.48420000  5.48753000  16.89650000
H  15.18000000  8.63413000  16.85470000
H  13.66060000  8.87228000  13.95710000
O  9.08626000  1.73564000  16.79070000
H  6.51184000  7.16471000  16.90730000
H  10.60990000  7.13485000  14.73030000
O  1.37840000  9.09222000  12.42570000
H  1.89158000  8.81980000  11.62970000
H  1.18850000  10.06390000  12.35480000
O  5.23293000  11.81300000  10.12170000
H  5.60489000  12.08290000  10.98360000
H  4.28756000  12.02800000  10.01660000
O  6.54133000  12.75430000  12.36050000
H  6.15539000  12.62270000  13.25020000
H  6.53682000  13.71440000  12.21710000
O  5.22138000  11.87010000  14.65500000
H  5.25973000  10.89720000  14.68890000
H  4.25240000  12.15390000  14.73690000
O  2.56386000  8.13933000  14.62050000
H  2.12527000  8.62359000  13.85410000
H  3.50465000  8.45356000  14.64410000
O  2.63320000  12.80040000  14.71110000
H  2.66076000  13.78590000  14.74850000
H  2.04857000  12.49110000  15.41400000
O  5.35935000  9.09235000  10.18250000
H  5.33229000  10.06740000  10.13260000
H  5.74730000  8.75624000  9.31306000
O  5.18240000  9.06488000  14.60400000
H  5.72060000  8.68371000  15.34610000
H  5.64030000  8.77612000  13.79120000
O  1.37066000  11.97680000  16.87710000
H  1.82150000  12.35120000  17.66770000
H  0.41348900  12.20180000  16.87540000
O  1.31362000  11.92220000  12.37320000
H  0.54345000  12.49970000  12.47770000
H  1.95039000  12.24330000  13.04920000
O  2.65790000  12.85500000  10.07980000
H  2.12079000  12.48260000  10.88310000
H  2.17674000  12.71650000  9.24573000
O  2.61155000  8.17755000  10.09410000
H  2.49178000  7.18440000  10.05600000
H  3.56425000  8.43011000  10.12210000
O  6.50397000  8.24079000  12.45050000
H  7.38814000  8.65277000  12.34610000
H  6.04590000  8.54961000  11.59120000
O  6.54704000  8.13990000  16.86590000
H  7.48232000  8.41649000  16.79240000
H  9.55067000  8.76588000  17.76690000
O  6.56327000  12.79110000  16.95360000
H  6.11310000  12.41120000  16.15570000
H  6.08156000  12.49810000  17.73630000
O  1.28045000  9.14832000  16.95030000
H  1.75353000  8.71075000  16.19610000
H  1.40542000  10.11920000  16.91280000
O  9.26622000  9.17016000  12.41630000
H  9.80104000  8.68756000  11.74840000
H  9.53032000  8.86308000  13.29740000
O  13.02720000  11.91860000  10.18160000
H  12.97380000  10.93300000  10.27720000
H  12.10230000  12.24370000  10.21640000
O  14.33140000  12.91290000  12.38190000
H  13.89670000  12.57750000  11.56310000
H  14.31890000  13.89750000  12.21250000
O  13.01110000  11.99660000  14.63450000
H  13.39630000  12.33560000  13.80040000
H  12.05660000  12.12850000  14.71110000
O  10.48130000  8.10673000  14.68000000
H  11.34740000  8.49345000  14.57310000
H  9.75713000  8.76768000  16.21350000
O  10.43710000  12.86040000  14.70800000
H  10.02240000  12.53110000  13.87200000
H  9.94971000  12.39300000  15.42420000
O  13.01560000  9.12526000  10.18250000
H  13.43080000  8.69129000  10.97740000
H  15.38450000  8.42598000  12.31900000
O  13.04080000  9.20220000  14.65450000
H  13.18550000  10.17350000  14.74410000
H  14.45830000  7.22288000  12.48090000
O  9.13154000  11.89240000  16.90940000
H  8.18674000  12.16300000  17.01190000
H  9.17346000  10.91080000  16.94520000
O  9.11452000  11.93850000  12.38100000
H  8.20606000  12.30130000  12.36680000
H  9.09897000  10.92560000  12.33880000
O  10.42570000  12.77630000  10.15290000
H  10.41160000  13.75700000  10.22570000
H  9.88246000  12.37950000  10.87330000
O  10.45580000  8.16732000  10.22410000
H  6.50233000  14.53240000  7.94950000
H  10.39480000  14.48430000  14.57740000
O  14.43800000  8.18990000  12.42920000
H  13.84260000  12.40940000  16.14540000
H  13.96110000  12.55770000  17.78820000