LAMMPS ice Ih (UMA) from ice.cif

384 atoms
2 atom types

0.0 15.645677531129 xlo xhi
0.0 14.707145294364 ylo yhi
0.0 18.073037030848 zlo zhi
0.000000000000 0.000000000000 0.000000000000 xy xz yz

Masses

1 15.9994  # O
2 1.008    # H

Atoms

1 1 1.34477913 1.76218450 3.18563351
2 2 1.38215855 2.76124179 3.19501931
3 2 0.40677410 1.54521242 3.13934426
4 1 5.71444988 5.12499928 0.92091463
5 2 5.99611223 5.21776795 1.84840103
6 2 5.63313782 4.14719999 0.79613190
7 1 6.56661868 5.64696848 3.59441456
8 2 6.02760851 5.25074124 4.32647516
9 2 6.48971617 6.61481202 3.66268702
10 1 5.16696095 4.56877291 5.61200396
11 2 4.21972781 4.83497083 5.65252965
12 2 5.57452738 4.83863056 6.46141293
13 1 2.58813739 0.93436986 5.64464568
14 2 2.20864266 1.20123200 4.78935567
15 2 3.54209781 1.16482548 5.61197113
16 1 2.55671769 5.34254968 5.63436109
17 2 2.49227881 6.31277502 5.61077547
18 2 2.06617862 5.04704833 6.44374318
19 1 5.39905846 2.40903497 0.77742376
20 2 4.49519366 2.06424713 0.70254691
21 2 5.74214399 1.97678328 1.59105603
22 1 5.23894668 1.71311155 5.55727841
23 2 5.72472274 1.43082812 6.36963086
24 2 5.22847772 2.68689036 5.59016892
25 1 1.23181008 4.54568565 7.83340733
26 2 1.19543150 3.56927425 7.83733276
27 2 1.69381768 4.79284644 8.65614110
28 1 1.44113138 4.39079702 3.21496213
29 2 2.00362563 4.77674991 2.51000983
30 2 1.81685522 4.70604002 4.05705670
31 1 2.96374261 5.58460772 1.23086233
32 2 2.92043358 6.54545665 1.32176638
33 2 3.91473085 5.37889302 1.10811318
34 1 2.85458416 1.05785020 0.87579097
35 2 2.34033987 1.27943009 1.66772989
36 2 3.17069739 0.16056387 1.06325583
37 1 6.38815641 1.13065965 3.03851133
38 2 5.97805560 1.26254514 3.91560353
39 2 7.33225346 1.31429970 3.16392464
40 1 6.56093001 1.00622535 7.82160830
41 2 6.15903378 1.18046395 8.69298382
42 2 7.51703501 1.15398504 7.91967009
43 1 6.49018705 5.38349032 7.93126865
44 2 7.41261542 5.04567266 7.88613209
45 2 6.55675828 6.35786593 7.93190096
46 1 1.31538048 1.72994107 7.80059718
47 2 1.81643784 1.45160466 6.97944772
48 2 0.50180692 1.21670149 7.78105447
49 1 9.17063355 1.94320306 3.30302282
50 2 9.07721341 2.90130436 3.46477769
51 2 9.59928632 1.89367428 2.43100614
52 1 13.15761685 4.74883646 1.16319914
53 2 13.24802399 2.83445865 1.53692062
54 2 13.64807487 4.77945417 0.34024379
55 1 14.57413316 5.73193133 3.30853638
56 2 15.30954003 5.21448314 3.63723504
57 2 13.71224761 5.17720282 1.85119136
58 1 12.87731886 4.71720427 5.40714285
59 2 13.25963736 5.14766455 4.62645555
60 2 11.94394469 5.05014360 5.49934452
61 1 10.36251903 0.80700651 5.54849984
62 2 9.91242528 1.13971487 4.74845889
63 2 11.30516291 0.89322142 5.35628733
64 1 10.38967490 5.58831811 5.63996165
65 2 9.88459945 5.29020727 4.84021713
66 2 10.34531474 6.56571090 5.64350922
67 1 13.15347791 1.86929837 1.59222777
68 2 11.42713666 1.81645080 1.06659432
69 2 13.45358253 1.63077682 2.47953408
70 1 13.05340528 2.01210335 5.15502460
71 2 13.87303591 2.12261036 6.97694842
72 2 12.87541032 2.98519373 5.20900503
73 1 9.09142613 4.53759372 7.86496625
74 2 9.28793609 2.63973534 7.88594733
75 2 9.57255721 4.92390394 7.10444894
76 1 9.06768262 4.75682646 3.48813534
77 2 8.12917948 5.08063734 3.50195034
78 2 9.45146382 5.00892162 2.63103822
79 1 10.31548381 5.28255463 0.94918707
80 2 9.87565637 4.55069572 0.49031456
81 2 11.24094367 4.99956340 1.02901283
82 1 10.51276445 2.05600426 0.79251466
83 2 10.20777583 1.36325374 0.20473774
84 2 14.90428686 1.66897193 5.06586686
85 1 14.27410722 1.99400872 4.40346789
86 2 14.23645258 1.97787195 8.46069327
87 2 13.77047539 5.09817779 6.95608744
88 1 14.60720897 2.26661950 7.59243043
89 2 13.04947257 2.95674771 9.96237264
90 2 12.45235205 1.52554512 10.01873257
91 1 14.36206818 5.07059216 7.73559379
92 2 14.63021874 4.13235217 7.71472421
93 2 14.55064297 7.01139152 7.82812074
94 1 9.35541987 1.67210340 7.96738315
95 2 9.72051978 1.35200217 7.11457249
96 2 10.34999490 1.15628034 9.39870911
97 1 1.44632682 9.33177948 3.33726188
98 2 1.82991624 8.94105434 4.15295101
99 2 1.47557914 10.28812647 3.46572068
100 1 5.32439470 11.63681388 0.92472392
101 2 5.44634104 10.67320943 0.87079222
102 2 3.76260608 12.39232302 1.03131421
103 1 6.63431227 12.68751979 3.37553819
104 2 7.58134067 12.42522717 3.35617052
105 2 5.79577148 11.89796686 1.73557850
106 1 5.12861550 11.86580777 5.58317518
107 2 6.10429406 12.24648237 7.12139680
108 2 5.60697854 12.13913083 4.77148327
109 1 2.53818661 8.21372211 5.57519204
110 2 3.47948194 8.47153485 5.65512367
111 2 2.10398018 8.49874973 6.39928063
112 1 2.52984494 13.01014900 5.60223770
113 2 2.51552373 13.97177219 5.56365804
114 2 4.25957054 12.29722738 5.56506138
115 1 5.36214471 8.68569970 0.95015525
116 2 4.37874734 8.58331680 0.99778067
117 2 5.65770745 7.92074502 0.45445192
118 1 5.20148575 9.07884479 5.71042245
119 2 5.64352393 8.85076225 4.86070298
120 2 5.12930930 10.05333304 5.70159776
121 1 1.31001517 11.82039380 7.87849246
122 2 1.15633279 10.10321379 7.89836282
123 2 1.70404479 12.20959902 7.07769396
124 1 1.32482350 12.22882628 3.25759073
125 2 0.40799528 12.31111169 3.05460161
126 2 2.05243826 12.75692105 4.78056526
127 1 2.93556154 12.91178226 1.16638791
128 2 2.71986216 13.35290313 0.34212787
129 2 1.87444806 12.46896505 2.46087443
130 1 2.68360168 8.48838270 1.15865502
131 2 2.03277811 8.43353570 0.45530171
132 2 2.20879883 8.81073654 1.97116737
133 1 6.52676880 8.48020971 3.42520321
134 2 7.46243238 8.75965178 3.36803346
135 2 6.12037897 8.58360469 2.53800721
136 1 6.56259775 8.20310116 7.92914953
137 2 6.11125052 8.52120161 7.11567707
138 2 7.48915493 8.51478040 7.88658865
139 1 6.53545797 12.46781826 7.96143572
140 2 5.88092625 14.60978150 8.90180986
141 2 7.47899055 12.22764492 7.87455511
142 1 1.21080033 9.11821604 7.90954167
143 2 0.30990858 8.77817452 7.93498742
144 2 2.20516205 8.51185203 9.32802828
145 1 9.19438064 9.25523162 3.38892111
146 2 9.61125970 8.80881250 2.60938776
147 2 9.63815272 8.89854789 4.19236684
148 1 13.14623594 11.79826379 1.12974263
149 2 13.16729069 10.82656860 1.18138857
150 2 12.22060084 12.03134894 0.96596279
151 1 14.07699466 13.12083840 3.35512568
152 2 13.47043157 12.26865530 4.78314680
153 2 13.80748987 12.67201185 2.52362121
154 1 13.06575894 11.80247188 5.54300235
155 2 12.14901209 12.11907148 5.57293331
156 2 14.08028245 11.74572349 7.13525682
157 1 10.45426965 8.35902393 5.63079181
158 2 11.40194058 8.59864295 5.70769444
159 2 10.02559900 8.61755788 6.48115216
160 1 10.43019652 12.91480899 5.53341377
161 2 10.00099778 12.55659819 4.71968153
162 2 10.44823527 13.86848807 5.42999263
163 1 13.21778774 8.95336151 1.35245758
164 2 13.66492391 8.55834007 0.60514476
165 2 13.73020291 8.70483518 2.15535870
166 1 13.16732407 9.04018402 5.75307476
167 2 14.05036330 8.60435665 4.42549264
168 2 13.20351958 10.01840472 5.81068392
169 1 9.27545369 11.82817101 7.90149765
170 2 9.73789096 12.20459819 7.12940613
171 2 9.70538795 12.19934583 8.69679426
172 1 9.23517406 11.88223481 3.31122364
173 2 9.26370084 10.88166356 3.33284296
174 2 9.63098407 12.14183211 2.46112223
175 1 10.27496576 12.55733013 0.69497322
176 2 9.84230340 11.98682547 0.04537760
177 2 10.23555636 13.44527602 0.32649401
178 1 10.34713984 8.18384051 1.19167691
179 2 10.19782543 7.23868787 1.01234132
180 2 11.30729795 8.29908311 1.26663185
181 1 14.63701725 8.34802270 3.64630401
182 2 14.72334743 6.67739809 3.54660497
183 2 15.41997194 8.88875842 3.75412412
184 1 14.48575616 7.97671556 7.76747593
185 2 13.66538644 8.70876312 6.55117671
186 2 14.03998375 8.27423513 8.58344194
187 1 14.64418411 11.57150269 7.90771977
188 2 14.07152772 11.65230989 8.68430728
189 2 14.74076271 14.06398535 7.53087416
190 1 9.19852436 9.07093883 7.92738177
191 2 9.24195290 10.04558921 7.98383521
192 2 9.66876566 8.72878671 8.72796408
193 1 1.14973381 1.92075491 12.39949226
194 2 2.16833308 1.29493445 10.89795740
195 2 0.22782255 1.69448465 12.25566571
196 1 5.16582429 4.48725343 10.16989040
197 2 5.62881827 4.84967947 10.95321312
198 2 5.66061795 4.80250925 9.38360331
199 1 6.44861281 5.45282066 12.46289122
200 2 5.98004043 5.16966224 13.28140186
201 2 6.47384465 6.42934561 12.48993521
202 1 5.15291095 4.71719354 14.76238807
203 2 5.27422369 2.89339870 14.73517043
204 2 4.23136473 5.04303515 14.71875991
205 1 2.47114778 1.53812170 14.81176067
206 2 2.32086435 2.47697785 15.00100975
207 2 2.04330936 1.43199310 13.93849694
208 1 2.51800597 5.60985506 14.73147562
209 2 2.49220312 6.59044087 14.72957301
210 2 2.13938907 5.31103313 15.57886376
211 1 5.34789443 1.65952265 10.30508385
212 2 4.42156941 1.33405283 10.28399763
213 2 5.27232945 2.63218582 10.25745809
214 1 5.31978130 1.91617727 14.75559243
215 2 6.23424828 1.35605231 16.20279347
216 2 4.39531863 1.61711663 14.67850941
217 1 1.76877677 4.52439964 17.20719372
218 2 1.50311232 3.59712958 17.34428281
219 2 2.54288554 4.64670032 17.77040535
220 1 1.24275230 4.56509560 12.41430180
221 2 1.18705973 2.92066514 12.39009694
222 2 1.68433309 4.96259183 13.18516718
223 1 2.58514792 5.39692521 10.15937205
224 2 1.73489749 4.88285929 11.62489017
225 2 3.51036489 5.06052852 10.14741495
226 1 2.70035684 0.92042409 10.17578440
227 2 2.27264673 1.20613113 9.34928737
228 2 6.38961792 1.18729807 11.73310756
229 1 6.94099069 1.02415785 12.52675847
230 2 6.39747083 1.29701927 13.28390847
231 2 8.56623352 1.47017479 12.50637856
232 1 6.75043941 1.11626327 16.99887737
233 2 6.27656460 1.51644930 17.73437926
234 2 8.47277403 1.80932879 16.96415115
235 1 6.26744747 5.85761070 16.99536793
236 2 5.55983424 5.14813721 15.55164755
237 2 7.20337451 5.54587066 17.06372475
238 1 1.20007254 1.74724773 17.41387262
239 2 0.41815937 1.52837604 16.88916950
240 2 1.91308320 1.30477712 16.92992716
241 1 9.49036598 1.83788538 12.47916366
242 2 9.34991777 2.80582964 12.41516547
243 2 10.42372108 1.18373811 10.95349706
244 1 12.86310077 4.79906917 10.03540129
245 2 13.33263636 5.05034685 10.85450435
246 2 13.43058348 5.02532721 9.26765970
247 1 14.12319899 5.16878068 12.49041315
248 2 14.52003837 4.27106589 12.45563566
249 2 13.46863031 5.05706012 13.21603688
250 1 12.53193855 4.73605126 14.65176475
251 2 13.14679027 4.87855762 15.40870125
252 2 12.30568886 3.78201306 14.64379401
253 1 10.88131905 1.37124166 14.68360065
254 2 10.40451407 1.52526051 13.81342619
255 2 9.82528925 1.98704720 16.22467816
256 1 10.06574869 5.85507274 14.61048041
257 2 9.39202130 5.07466793 13.18559767
258 2 10.97833514 5.50293505 14.68805651
259 1 13.31852913 2.01606259 9.97065754
260 2 14.15666223 2.10971579 11.56806441
261 2 13.62061143 2.11038664 12.99461783
262 1 12.13874459 2.02728048 14.46078591
263 2 14.71687198 1.01969577 16.13780983
264 2 12.67920852 1.64943337 15.18880815
265 1 8.86085093 5.02618909 17.06600054
266 2 9.01630580 4.05665815 17.10036527
267 2 9.24495161 5.30336201 16.21563141
268 1 9.04744267 4.62272257 12.38216322
269 2 8.08744609 4.83294725 12.38007835
270 2 9.82558250 5.17397165 10.98551589
271 1 10.25063276 5.55742919 10.17761672
272 2 9.50931072 4.88624960 8.67725511
273 2 11.17654204 5.23007691 10.14928893
274 1 10.91953874 0.91723762 10.15960464
275 2 10.36503196 7.19294012 10.17774622
276 2 11.43310785 8.35068345 10.16527785
277 1 14.40046787 2.37062395 12.48449651
278 2 13.56998920 0.66400871 17.10786504
279 2 14.12902117 4.80724812 17.47840125
280 1 13.88684750 1.33998081 16.50141810
281 2 14.30218220 6.21011317 16.83216715
282 2 13.94759893 8.40601027 16.07159810
283 1 14.32281733 5.24409056 16.65075974
284 2 15.26285648 8.29017580 16.86656258
285 2 13.75629544 8.68531942 13.78543899
286 1 9.33072269 2.27685183 17.00902911
287 2 6.28960073 6.81319773 17.13596742
288 2 10.17783403 6.82267487 14.53858463
289 1 1.50813267 9.32349324 12.40233366
290 2 1.88862845 8.89885962 11.60171000
291 2 1.65675357 10.27167678 12.30227922
292 1 5.26710570 11.83356762 10.25382545
293 2 5.72587430 12.04517126 9.40583974
294 2 4.37149197 12.20800996 10.16556796
295 1 6.68159902 12.87825465 12.38655514
296 2 6.16791427 12.66743898 13.18423863
297 2 6.16032302 12.52702713 11.63076851
298 1 5.16675472 12.20027208 14.65898196
299 2 5.19869745 10.27928829 14.42831726
300 2 4.25951064 12.55318999 14.70608933
301 1 2.61420667 8.39812338 14.67611241
302 2 2.19174013 8.70065331 13.83410876
303 2 3.55495483 8.66604447 14.60742660
304 1 2.50817388 13.18334222 14.76145497
305 2 2.50379652 14.14155602 14.86557524
306 2 2.09447086 12.81113267 15.59117870
307 1 5.26615620 9.02846336 10.15540880
308 2 5.26048660 10.00658512 10.15736276
309 2 5.74489772 8.74502301 9.33935645
310 1 5.22718370 9.31191444 14.53353688
311 2 6.01068795 9.09598291 16.18603572
312 2 5.73271811 8.95057380 13.76475461
313 1 1.47859320 12.14515924 16.94788175
314 2 1.54464737 11.15225792 16.96352441
315 2 0.55941112 12.32767820 17.15133353
316 1 1.34809807 12.27274776 12.43728592
317 2 0.40180843 12.16334343 12.55945078
318 2 1.70902312 12.59507298 13.29280022
319 1 2.65564382 13.00942898 10.14184112
320 2 2.14988127 12.78315544 10.95414021
321 2 1.77390948 12.23361492 8.62041140
322 1 2.65215099 8.20666969 10.14039575
323 2 2.63721317 6.37339890 10.14456246
324 2 3.59137475 8.48649383 10.08032417
325 1 6.57241702 8.27019215 12.43433723
326 2 7.49286234 8.59538972 12.35777838
327 2 6.12370849 8.51640463 11.59255510
328 1 6.39578581 9.17815089 17.08423181
329 2 7.35193491 9.03751373 16.96700638
330 2 9.66846108 8.79446566 17.74011645
331 1 6.42867684 12.14411139 17.24260968
332 2 5.55454612 12.31446505 15.54511176
333 2 6.28796399 11.19178295 17.43452889
334 1 1.50541261 9.48937654 16.87496636
335 2 1.73766598 8.91945720 17.59467463
336 2 1.90350294 9.06468570 16.06815084
337 1 9.15685236 9.26285505 12.26651785
338 2 9.65412021 8.87757123 11.50267518
339 2 9.65616345 9.00598288 13.07360390
340 1 13.02193761 11.62697673 10.31308770
341 2 13.17680120 9.80890512 10.29200347
342 2 12.15801716 12.07124710 10.30014801
343 1 14.50479150 12.60085702 12.40417548
344 2 13.53845477 12.03672886 11.03559917
345 2 15.03874063 13.39264870 12.45823314
346 1 13.13434005 11.92271113 14.69396816
347 2 14.07539487 12.47215152 13.27653757
348 2 12.20216036 12.21497416 14.64583204
349 1 10.50527811 8.60860169 14.55465024
350 2 11.46958232 8.76748383 14.58119110
351 2 10.13379216 8.85535836 15.42648117
352 1 10.47389269 12.82016635 14.52386482
353 2 9.97630239 12.47051597 13.73309633
354 2 9.68115866 12.25682974 16.14276263
355 1 13.19196701 8.83390129 10.19721688
356 2 13.66882682 8.48094165 10.97428439
357 2 15.55241227 7.97737300 12.24294881
358 1 13.26875210 9.08467114 14.53704345
359 2 13.32792878 10.05357981 14.46147401
360 2 14.55702424 6.79275036 12.45294451
361 1 9.34167206 11.95609689 17.00571561
362 2 8.39904070 12.18437791 17.02391931
363 2 9.39352214 10.20645261 17.09701248
364 1 9.15986001 11.95145607 12.37863093
365 2 8.20770800 12.25200772 12.38613935
366 2 9.14801836 10.96202493 12.30722204
367 1 10.43827891 12.87626624 10.21355561
368 2 10.37152290 13.83616686 10.22942653
369 2 9.94403899 12.55455494 11.01411832
370 1 10.46640158 8.18443239 10.14571970
371 2 5.62823951 15.21614075 9.25409597
372 2 10.42953372 13.77969027 14.45058459
373 1 14.62579012 7.78235853 12.41350761
374 2 13.47054601 12.21607327 15.55908365
375 2 14.00482774 12.19842911 17.95416658
376 1 14.33805585 8.03063512 16.88938696
377 2 14.26324606 13.63685250 17.50773905
378 2 6.08787119 12.63156176 17.99702275
379 1 14.22743082 12.74393678 17.19102395
380 2 14.61734176 14.76785183 7.32158654
381 2 14.98849750 13.39272261 3.22881215
382 1 9.30279672 9.23313975 16.96450559
383 2 2.74508953 13.96628499 10.14355028
384 2 6.64200485 13.65185738 3.29191886
